V -t * -v 1.0a5 -a 0
W -t * -x 569.203125 -y 597.906250
A -t * -n 1 -p 0 -o 0x7fffffff -c 30 -a 1
A -t * -h 1 -m 1073741823 -s 0
c -t * -i 1 -n black
n -t * -a 0 -s 0 -S UP -v circle -c black -i black -x 569.203125 -y 586.218750 -Z 0.0
n -t * -a 1 -s 1 -S UP -v circle -c black -i black -x 487.390594 -y 597.906250 -Z 0.0
l -t * -s 0 -d 1 -S UP -r 1000000 -D 0.02 -c black -o 171.9deg
q -t * -s 1 -d 0 -a 0.5
q -t * -s 0 -d 1 -a 0.5
+ -t 1 -s 1 -d 0 -p cbr -e 210 -c 1 -i 0 -a 1 -x {1.0 0.0 0 ------- null}
- -t 1 -s 1 -d 0 -p cbr -e 210 -c 1 -i 0 -a 1 -x {1.0 0.0 0 ------- null}
h -t 1 -s 1 -d 0 -p cbr -e 210 -c 1 -i 0 -a 1 -x {1.0 0.0 -1 ------- null}
+ -t 1.00195 -s 1 -d 0 -p cbr -e 210 -c 1 -i 1 -a 1 -x {1.0 0.0 1 ------- null}
- -t 1.00195 -s 1 -d 0 -p cbr -e 210 -c 1 -i 1 -a 1 -x {1.0 0.0 1 ------- null}
h -t 1.00195 -s 1 -d 0 -p cbr -e 210 -c 1 -i 1 -a 1 -x {1.0 0.0 -1 ------- null}
+ -t 1.0039 -s 1 -d 0 -p cbr -e 210 -c 1 -i 2 -a 1 -x {1.0 0.0 2 ------- null}
- -t 1.0039 -s 1 -d 0 -p cbr -e 210 -c 1 -i 2 -a 1 -x {1.0 0.0 2 ------- null}
h -t 1.0039 -s 1 -d 0 -p cbr -e 210 -c 1 -i 2 -a 1 -x {1.0 0.0 -1 ------- null}
+ -t 1.00585 -s 1 -d 0 -p cbr -e 210 -c 1 -i 3 -a 1 -x {1.0 0.0 3 ------- null}
- -t 1.00585 -s 1 -d 0 -p cbr -e 210 -c 1 -i 3 -a 1 -x {1.0 0.0 3 ------- null}
h -t 1.00585 -s 1 -d 0 -p cbr -e 210 -c 1 -i 3 -a 1 -x {1.0 0.0 -1 ------- null}
+ -t 1.0078 -s 1 -d 0 -p cbr -e 210 -c 1 -i 4 -a 1 -x {1.0 0.0 4 ------- null}
- -t 1.0078 -s 1 -d 0 -p cbr -e 210 -c 1 -i 4 -a 1 -x {1.0 0.0 4 ------- null}
h -t 1.0078 -s 1 -d 0 -p cbr -e 210 -c 1 -i 4 -a 1 -x {1.0 0.0 -1 ------- null}
+ -t 1.00975 -s 1 -d 0 -p cbr -e 210 -c 1 -i 5 -a 1 -x {1.0 0.0 5 ------- null}
- -t 1.00975 -s 1 -d 0 -p cbr -e 210 -c 1 -i 5 -a 1 -x {1.0 0.0 5 ------- null}
h -t 1.00975 -s 1 -d 0 -p cbr -e 210 -c 1 -i 5 -a 1 -x {1.0 0.0 -1 ------- null}
+ -t 1.0117 -s 1 -d 0 -p cbr -e 210 -c 1 -i 6 -a 1 -x {1.0 0.0 6 ------- null}
- -t 1.0117 -s 1 -d 0 -p cbr -e 210 -c 1 -i 6 -a 1 -x {1.0 0.0 6 ------- null}
h -t 1.0117 -s 1 -d 0 -p cbr -e 210 -c 1 -i 6 -a 1 -x {1.0 0.0 -1 ------- null}
+ -t 1.01365 -s 1 -d 0 -p cbr -e 210 -c 1 -i 7 -a 1 -x {1.0 0.0 7 ------- null}
- -t 1.01365 -s 1 -d 0 -p cbr -e 210 -c 1 -i 7 -a 1 -x {1.0 0.0 7 ------- null}
h -t 1.01365 -s 1 -d 0 -p cbr -e 210 -c 1 -i 7 -a 1 -x {1.0 0.0 -1 ------- null}
+ -t 1.0156 -s 1 -d 0 -p cbr -e 210 -c 1 -i 8 -a 1 -x {1.0 0.0 8 ------- null}
- -t 1.0156 -s 1 -d 0 -p cbr -e 210 -c 1 -i 8 -a 1 -x {1.0 0.0 8 ------- null}
h -t 1.0156 -s 1 -d 0 -p cbr -e 210 -c 1 -i 8 -a 1 -x {1.0 0.0 -1 ------- null}
+ -t 1.01755 -s 1 -d 0 -p cbr -e 210 -c 1 -i 9 -a 1 -x {1.0 0.0 9 ------- null}
- -t 1.01755 -s 1 -d 0 -p cbr -e 210 -c 1 -i 9 -a 1 -x {1.0 0.0 9 ------- null}
h -t 1.01755 -s 1 -d 0 -p cbr -e 210 -c 1 -i 9 -a 1 -x {1.0 0.0 -1 ------- null}
+ -t 1.0195 -s 1 -d 0 -p cbr -e 210 -c 1 -i 10 -a 1 -x {1.0 0.0 10 ------- null}
- -t 1.0195 -s 1 -d 0 -p cbr -e 210 -c 1 -i 10 -a 1 -x {1.0 0.0 10 ------- null}
h -t 1.0195 -s 1 -d 0 -p cbr -e 210 -c 1 -i 10 -a 1 -x {1.0 0.0 -1 ------- null}
+ -t 1.02145 -s 1 -d 0 -p cbr -e 210 -c 1 -i 11 -a 1 -x {1.0 0.0 11 ------- null}
- -t 1.02145 -s 1 -d 0 -p cbr -e 210 -c 1 -i 11 -a 1 -x {1.0 0.0 11 ------- null}
h -t 1.02145 -s 1 -d 0 -p cbr -e 210 -c 1 -i 11 -a 1 -x {1.0 0.0 -1 ------- null}
r -t 1.02168 -s 1 -d 0 -p cbr -e 210 -c 1 -i 0 -a 1 -x {1.0 0.0 0 ------- null}
+ -t 1.0234 -s 1 -d 0 -p cbr -e 210 -c 1 -i 12 -a 1 -x {1.0 0.0 12 ------- null}
- -t 1.0234 -s 1 -d 0 -p cbr -e 210 -c 1 -i 12 -a 1 -x {1.0 0.0 12 ------- null}
h -t 1.0234 -s 1 -d 0 -p cbr -e 210 -c 1 -i 12 -a 1 -x {1.0 0.0 -1 ------- null}
r -t 1.02363 -s 1 -d 0 -p cbr -e 210 -c 1 -i 1 -a 1 -x {1.0 0.0 1 ------- null}
+ -t 1.02535 -s 1 -d 0 -p cbr -e 210 -c 1 -i 13 -a 1 -x {1.0 0.0 13 ------- null}
- -t 1.02535 -s 1 -d 0 -p cbr -e 210 -c 1 -i 13 -a 1 -x {1.0 0.0 13 ------- null}
h -t 1.02535 -s 1 -d 0 -p cbr -e 210 -c 1 -i 13 -a 1 -x {1.0 0.0 -1 ------- null}
r -t 1.02558 -s 1 -d 0 -p cbr -e 210 -c 1 -i 2 -a 1 -x {1.0 0.0 2 ------- null}
+ -t 1.0273 -s 1 -d 0 -p cbr -e 210 -c 1 -i 14 -a 1 -x {1.0 0.0 14 ------- null}
- -t 1.0273 -s 1 -d 0 -p cbr -e 210 -c 1 -i 14 -a 1 -x {1.0 0.0 14 ------- null}
h -t 1.0273 -s 1 -d 0 -p cbr -e 210 -c 1 -i 14 -a 1 -x {1.0 0.0 -1 ------- null}
r -t 1.02753 -s 1 -d 0 -p cbr -e 210 -c 1 -i 3 -a 1 -x {1.0 0.0 3 ------- null}
+ -t 1.02925 -s 1 -d 0 -p cbr -e 210 -c 1 -i 15 -a 1 -x {1.0 0.0 15 ------- null}
- -t 1.02925 -s 1 -d 0 -p cbr -e 210 -c 1 -i 15 -a 1 -x {1.0 0.0 15 ------- null}
h -t 1.02925 -s 1 -d 0 -p cbr -e 210 -c 1 -i 15 -a 1 -x {1.0 0.0 -1 ------- null}
r -t 1.02948 -s 1 -d 0 -p cbr -e 210 -c 1 -i 4 -a 1 -x {1.0 0.0 4 ------- null}
+ -t 1.0312 -s 1 -d 0 -p cbr -e 210 -c 1 -i 16 -a 1 -x {1.0 0.0 16 ------- null}
- -t 1.0312 -s 1 -d 0 -p cbr -e 210 -c 1 -i 16 -a 1 -x {1.0 0.0 16 ------- null}
h -t 1.0312 -s 1 -d 0 -p cbr -e 210 -c 1 -i 16 -a 1 -x {1.0 0.0 -1 ------- null}
r -t 1.03143 -s 1 -d 0 -p cbr -e 210 -c 1 -i 5 -a 1 -x {1.0 0.0 5 ------- null}
+ -t 1.03315 -s 1 -d 0 -p cbr -e 210 -c 1 -i 17 -a 1 -x {1.0 0.0 17 ------- null}
- -t 1.03315 -s 1 -d 0 -p cbr -e 210 -c 1 -i 17 -a 1 -x {1.0 0.0 17 ------- null}
h -t 1.03315 -s 1 -d 0 -p cbr -e 210 -c 1 -i 17 -a 1 -x {1.0 0.0 -1 ------- null}
r -t 1.03338 -s 1 -d 0 -p cbr -e 210 -c 1 -i 6 -a 1 -x {1.0 0.0 6 ------- null}
+ -t 1.0351 -s 1 -d 0 -p cbr -e 210 -c 1 -i 18 -a 1 -x {1.0 0.0 18 ------- null}
- -t 1.0351 -s 1 -d 0 -p cbr -e 210 -c 1 -i 18 -a 1 -x {1.0 0.0 18 ------- null}
h -t 1.0351 -s 1 -d 0 -p cbr -e 210 -c 1 -i 18 -a 1 -x {1.0 0.0 -1 ------- null}
r -t 1.03533 -s 1 -d 0 -p cbr -e 210 -c 1 -i 7 -a 1 -x {1.0 0.0 7 ------- null}
+ -t 1.03705 -s 1 -d 0 -p cbr -e 210 -c 1 -i 19 -a 1 -x {1.0 0.0 19 ------- null}
- -t 1.03705 -s 1 -d 0 -p cbr -e 210 -c 1 -i 19 -a 1 -x {1.0 0.0 19 ------- null}
h -t 1.03705 -s 1 -d 0 -p cbr -e 210 -c 1 -i 19 -a 1 -x {1.0 0.0 -1 ------- null}
r -t 1.03728 -s 1 -d 0 -p cbr -e 210 -c 1 -i 8 -a 1 -x {1.0 0.0 8 ------- null}
+ -t 1.039 -s 1 -d 0 -p cbr -e 210 -c 1 -i 20 -a 1 -x {1.0 0.0 20 ------- null}
- -t 1.039 -s 1 -d 0 -p cbr -e 210 -c 1 -i 20 -a 1 -x {1.0 0.0 20 ------- null}
h -t 1.039 -s 1 -d 0 -p cbr -e 210 -c 1 -i 20 -a 1 -x {1.0 0.0 -1 ------- null}
r -t 1.03923 -s 1 -d 0 -p cbr -e 210 -c 1 -i 9 -a 1 -x {1.0 0.0 9 ------- null}
+ -t 1.04095 -s 1 -d 0 -p cbr -e 210 -c 1 -i 21 -a 1 -x {1.0 0.0 21 ------- null}
- -t 1.04095 -s 1 -d 0 -p cbr -e 210 -c 1 -i 21 -a 1 -x {1.0 0.0 21 ------- null}
h -t 1.04095 -s 1 -d 0 -p cbr -e 210 -c 1 -i 21 -a 1 -x {1.0 0.0 -1 ------- null}
r -t 1.04118 -s 1 -d 0 -p cbr -e 210 -c 1 -i 10 -a 1 -x {1.0 0.0 10 ------- null}
+ -t 1.0429 -s 1 -d 0 -p cbr -e 210 -c 1 -i 22 -a 1 -x {1.0 0.0 22 ------- null}
- -t 1.0429 -s 1 -d 0 -p cbr -e 210 -c 1 -i 22 -a 1 -x {1.0 0.0 22 ------- null}
h -t 1.0429 -s 1 -d 0 -p cbr -e 210 -c 1 -i 22 -a 1 -x {1.0 0.0 -1 ------- null}
r -t 1.04313 -s 1 -d 0 -p cbr -e 210 -c 1 -i 11 -a 1 -x {1.0 0.0 11 ------- null}
+ -t 1.04485 -s 1 -d 0 -p cbr -e 210 -c 1 -i 23 -a 1 -x {1.0 0.0 23 ------- null}
- -t 1.04485 -s 1 -d 0 -p cbr -e 210 -c 1 -i 23 -a 1 -x {1.0 0.0 23 ------- null}
h -t 1.04485 -s 1 -d 0 -p cbr -e 210 -c 1 -i 23 -a 1 -x {1.0 0.0 -1 ------- null}
r -t 1.04508 -s 1 -d 0 -p cbr -e 210 -c 1 -i 12 -a 1 -x {1.0 0.0 12 ------- null}
+ -t 1.0468 -s 1 -d 0 -p cbr -e 210 -c 1 -i 24 -a 1 -x {1.0 0.0 24 ------- null}
- -t 1.0468 -s 1 -d 0 -p cbr -e 210 -c 1 -i 24 -a 1 -x {1.0 0.0 24 ------- null}
h -t 1.0468 -s 1 -d 0 -p cbr -e 210 -c 1 -i 24 -a 1 -x {1.0 0.0 -1 ------- null}
r -t 1.04703 -s 1 -d 0 -p cbr -e 210 -c 1 -i 13 -a 1 -x {1.0 0.0 13 ------- null}
+ -t 1.04875 -s 1 -d 0 -p cbr -e 210 -c 1 -i 25 -a 1 -x {1.0 0.0 25 ------- null}
- -t 1.04875 -s 1 -d 0 -p cbr -e 210 -c 1 -i 25 -a 1 -x {1.0 0.0 25 ------- null}
h -t 1.04875 -s 1 -d 0 -p cbr -e 210 -c 1 -i 25 -a 1 -x {1.0 0.0 -1 ------- null}
r -t 1.04898 -s 1 -d 0 -p cbr -e 210 -c 1 -i 14 -a 1 -x {1.0 0.0 14 ------- null}
+ -t 1.0507 -s 1 -d 0 -p cbr -e 210 -c 1 -i 26 -a 1 -x {1.0 0.0 26 ------- null}
- -t 1.0507 -s 1 -d 0 -p cbr -e 210 -c 1 -i 26 -a 1 -x {1.0 0.0 26 ------- null}
h -t 1.0507 -s 1 -d 0 -p cbr -e 210 -c 1 -i 26 -a 1 -x {1.0 0.0 -1 ------- null}
r -t 1.05093 -s 1 -d 0 -p cbr -e 210 -c 1 -i 15 -a 1 -x {1.0 0.0 15 ------- null}
+ -t 1.05265 -s 1 -d 0 -p cbr -e 210 -c 1 -i 27 -a 1 -x {1.0 0.0 27 ------- null}
- -t 1.05265 -s 1 -d 0 -p cbr -e 210 -c 1 -i 27 -a 1 -x {1.0 0.0 27 ------- null}
h -t 1.05265 -s 1 -d 0 -p cbr -e 210 -c 1 -i 27 -a 1 -x {1.0 0.0 -1 ------- null}
r -t 1.05288 -s 1 -d 0 -p cbr -e 210 -c 1 -i 16 -a 1 -x {1.0 0.0 16 ------- null}
+ -t 1.0546 -s 1 -d 0 -p cbr -e 210 -c 1 -i 28 -a 1 -x {1.0 0.0 28 ------- null}
- -t 1.0546 -s 1 -d 0 -p cbr -e 210 -c 1 -i 28 -a 1 -x {1.0 0.0 28 ------- null}
h -t 1.0546 -s 1 -d 0 -p cbr -e 210 -c 1 -i 28 -a 1 -x {1.0 0.0 -1 ------- null}
r -t 1.05483 -s 1 -d 0 -p cbr -e 210 -c 1 -i 17 -a 1 -x {1.0 0.0 17 ------- null}
+ -t 1.05655 -s 1 -d 0 -p cbr -e 210 -c 1 -i 29 -a 1 -x {1.0 0.0 29 ------- null}
- -t 1.05655 -s 1 -d 0 -p cbr -e 210 -c 1 -i 29 -a 1 -x {1.0 0.0 29 ------- null}
h -t 1.05655 -s 1 -d 0 -p cbr -e 210 -c 1 -i 29 -a 1 -x {1.0 0.0 -1 ------- null}
r -t 1.05678 -s 1 -d 0 -p cbr -e 210 -c 1 -i 18 -a 1 -x {1.0 0.0 18 ------- null}
+ -t 1.0585 -s 1 -d 0 -p cbr -e 210 -c 1 -i 30 -a 1 -x {1.0 0.0 30 ------- null}
- -t 1.0585 -s 1 -d 0 -p cbr -e 210 -c 1 -i 30 -a 1 -x {1.0 0.0 30 ------- null}
h -t 1.0585 -s 1 -d 0 -p cbr -e 210 -c 1 -i 30 -a 1 -x {1.0 0.0 -1 ------- null}
r -t 1.05873 -s 1 -d 0 -p cbr -e 210 -c 1 -i 19 -a 1 -x {1.0 0.0 19 ------- null}
+ -t 1.06045 -s 1 -d 0 -p cbr -e 210 -c 1 -i 31 -a 1 -x {1.0 0.0 31 ------- null}
- -t 1.06045 -s 1 -d 0 -p cbr -e 210 -c 1 -i 31 -a 1 -x {1.0 0.0 31 ------- null}
h -t 1.06045 -s 1 -d 0 -p cbr -e 210 -c 1 -i 31 -a 1 -x {1.0 0.0 -1 ------- null}
r -t 1.06068 -s 1 -d 0 -p cbr -e 210 -c 1 -i 20 -a 1 -x {1.0 0.0 20 ------- null}
+ -t 1.0624 -s 1 -d 0 -p cbr -e 210 -c 1 -i 32 -a 1 -x {1.0 0.0 32 ------- null}
- -t 1.0624 -s 1 -d 0 -p cbr -e 210 -c 1 -i 32 -a 1 -x {1.0 0.0 32 ------- null}
h -t 1.0624 -s 1 -d 0 -p cbr -e 210 -c 1 -i 32 -a 1 -x {1.0 0.0 -1 ------- null}
r -t 1.06263 -s 1 -d 0 -p cbr -e 210 -c 1 -i 21 -a 1 -x {1.0 0.0 21 ------- null}
+ -t 1.06435 -s 1 -d 0 -p cbr -e 210 -c 1 -i 33 -a 1 -x {1.0 0.0 33 ------- null}
- -t 1.06435 -s 1 -d 0 -p cbr -e 210 -c 1 -i 33 -a 1 -x {1.0 0.0 33 ------- null}
h -t 1.06435 -s 1 -d 0 -p cbr -e 210 -c 1 -i 33 -a 1 -x {1.0 0.0 -1 ------- null}
r -t 1.06458 -s 1 -d 0 -p cbr -e 210 -c 1 -i 22 -a 1 -x {1.0 0.0 22 ------- null}
+ -t 1.0663 -s 1 -d 0 -p cbr -e 210 -c 1 -i 34 -a 1 -x {1.0 0.0 34 ------- null}
- -t 1.0663 -s 1 -d 0 -p cbr -e 210 -c 1 -i 34 -a 1 -x {1.0 0.0 34 ------- null}
h -t 1.0663 -s 1 -d 0 -p cbr -e 210 -c 1 -i 34 -a 1 -x {1.0 0.0 -1 ------- null}
r -t 1.06653 -s 1 -d 0 -p cbr -e 210 -c 1 -i 23 -a 1 -x {1.0 0.0 23 ------- null}
+ -t 1.06825 -s 1 -d 0 -p cbr -e 210 -c 1 -i 35 -a 1 -x {1.0 0.0 35 ------- null}
- -t 1.06825 -s 1 -d 0 -p cbr -e 210 -c 1 -i 35 -a 1 -x {1.0 0.0 35 ------- null}
h -t 1.06825 -s 1 -d 0 -p cbr -e 210 -c 1 -i 35 -a 1 -x {1.0 0.0 -1 ------- null}
r -t 1.06848 -s 1 -d 0 -p cbr -e 210 -c 1 -i 24 -a 1 -x {1.0 0.0 24 ------- null}
+ -t 1.0702 -s 1 -d 0 -p cbr -e 210 -c 1 -i 36 -a 1 -x {1.0 0.0 36 ------- null}
- -t 1.0702 -s 1 -d 0 -p cbr -e 210 -c 1 -i 36 -a 1 -x {1.0 0.0 36 ------- null}
h -t 1.0702 -s 1 -d 0 -p cbr -e 210 -c 1 -i 36 -a 1 -x {1.0 0.0 -1 ------- null}
r -t 1.07043 -s 1 -d 0 -p cbr -e 210 -c 1 -i 25 -a 1 -x {1.0 0.0 25 ------- null}
+ -t 1.07215 -s 1 -d 0 -p cbr -e 210 -c 1 -i 37 -a 1 -x {1.0 0.0 37 ------- null}
- -t 1.07215 -s 1 -d 0 -p cbr -e 210 -c 1 -i 37 -a 1 -x {1.0 0.0 37 ------- null}
h -t 1.07215 -s 1 -d 0 -p cbr -e 210 -c 1 -i 37 -a 1 -x {1.0 0.0 -1 ------- null}
r -t 1.07238 -s 1 -d 0 -p cbr -e 210 -c 1 -i 26 -a 1 -x {1.0 0.0 26 ------- null}
+ -t 1.0741 -s 1 -d 0 -p cbr -e 210 -c 1 -i 38 -a 1 -x {1.0 0.0 38 ------- null}
- -t 1.0741 -s 1 -d 0 -p cbr -e 210 -c 1 -i 38 -a 1 -x {1.0 0.0 38 ------- null}
h -t 1.0741 -s 1 -d 0 -p cbr -e 210 -c 1 -i 38 -a 1 -x {1.0 0.0 -1 ------- null}
r -t 1.07433 -s 1 -d 0 -p cbr -e 210 -c 1 -i 27 -a 1 -x {1.0 0.0 27 ------- null}
+ -t 1.07605 -s 1 -d 0 -p cbr -e 210 -c 1 -i 39 -a 1 -x {1.0 0.0 39 ------- null}
- -t 1.07605 -s 1 -d 0 -p cbr -e 210 -c 1 -i 39 -a 1 -x {1.0 0.0 39 ------- null}
h -t 1.07605 -s 1 -d 0 -p cbr -e 210 -c 1 -i 39 -a 1 -x {1.0 0.0 -1 ------- null}
r -t 1.07628 -s 1 -d 0 -p cbr -e 210 -c 1 -i 28 -a 1 -x {1.0 0.0 28 ------- null}
+ -t 1.078 -s 1 -d 0 -p cbr -e 210 -c 1 -i 40 -a 1 -x {1.0 0.0 40 ------- null}
- -t 1.078 -s 1 -d 0 -p cbr -e 210 -c 1 -i 40 -a 1 -x {1.0 0.0 40 ------- null}
h -t 1.078 -s 1 -d 0 -p cbr -e 210 -c 1 -i 40 -a 1 -x {1.0 0.0 -1 ------- null}
r -t 1.07823 -s 1 -d 0 -p cbr -e 210 -c 1 -i 29 -a 1 -x {1.0 0.0 29 ------- null}
+ -t 1.07995 -s 1 -d 0 -p cbr -e 210 -c 1 -i 41 -a 1 -x {1.0 0.0 41 ------- null}
- -t 1.07995 -s 1 -d 0 -p cbr -e 210 -c 1 -i 41 -a 1 -x {1.0 0.0 41 ------- null}
h -t 1.07995 -s 1 -d 0 -p cbr -e 210 -c 1 -i 41 -a 1 -x {1.0 0.0 -1 ------- null}
r -t 1.08018 -s 1 -d 0 -p cbr -e 210 -c 1 -i 30 -a 1 -x {1.0 0.0 30 ------- null}
+ -t 1.0819 -s 1 -d 0 -p cbr -e 210 -c 1 -i 42 -a 1 -x {1.0 0.0 42 ------- null}
- -t 1.0819 -s 1 -d 0 -p cbr -e 210 -c 1 -i 42 -a 1 -x {1.0 0.0 42 ------- null}
h -t 1.0819 -s 1 -d 0 -p cbr -e 210 -c 1 -i 42 -a 1 -x {1.0 0.0 -1 ------- null}
r -t 1.08213 -s 1 -d 0 -p cbr -e 210 -c 1 -i 31 -a 1 -x {1.0 0.0 31 ------- null}
+ -t 1.08385 -s 1 -d 0 -p cbr -e 210 -c 1 -i 43 -a 1 -x {1.0 0.0 43 ------- null}
- -t 1.08385 -s 1 -d 0 -p cbr -e 210 -c 1 -i 43 -a 1 -x {1.0 0.0 43 ------- null}
h -t 1.08385 -s 1 -d 0 -p cbr -e 210 -c 1 -i 43 -a 1 -x {1.0 0.0 -1 ------- null}
r -t 1.08408 -s 1 -d 0 -p cbr -e 210 -c 1 -i 32 -a 1 -x {1.0 0.0 32 ------- null}
+ -t 1.0858 -s 1 -d 0 -p cbr -e 210 -c 1 -i 44 -a 1 -x {1.0 0.0 44 ------- null}
- -t 1.0858 -s 1 -d 0 -p cbr -e 210 -c 1 -i 44 -a 1 -x {1.0 0.0 44 ------- null}
h -t 1.0858 -s 1 -d 0 -p cbr -e 210 -c 1 -i 44 -a 1 -x {1.0 0.0 -1 ------- null}
r -t 1.08603 -s 1 -d 0 -p cbr -e 210 -c 1 -i 33 -a 1 -x {1.0 0.0 33 ------- null}
+ -t 1.08775 -s 1 -d 0 -p cbr -e 210 -c 1 -i 45 -a 1 -x {1.0 0.0 45 ------- null}
- -t 1.08775 -s 1 -d 0 -p cbr -e 210 -c 1 -i 45 -a 1 -x {1.0 0.0 45 ------- null}
h -t 1.08775 -s 1 -d 0 -p cbr -e 210 -c 1 -i 45 -a 1 -x {1.0 0.0 -1 ------- null}
r -t 1.08798 -s 1 -d 0 -p cbr -e 210 -c 1 -i 34 -a 1 -x {1.0 0.0 34 ------- null}
+ -t 1.0897 -s 1 -d 0 -p cbr -e 210 -c 1 -i 46 -a 1 -x {1.0 0.0 46 ------- null}
- -t 1.0897 -s 1 -d 0 -p cbr -e 210 -c 1 -i 46 -a 1 -x {1.0 0.0 46 ------- null}
h -t 1.0897 -s 1 -d 0 -p cbr -e 210 -c 1 -i 46 -a 1 -x {1.0 0.0 -1 ------- null}
r -t 1.08993 -s 1 -d 0 -p cbr -e 210 -c 1 -i 35 -a 1 -x {1.0 0.0 35 ------- null}
+ -t 1.09165 -s 1 -d 0 -p cbr -e 210 -c 1 -i 47 -a 1 -x {1.0 0.0 47 ------- null}
- -t 1.09165 -s 1 -d 0 -p cbr -e 210 -c 1 -i 47 -a 1 -x {1.0 0.0 47 ------- null}
h -t 1.09165 -s 1 -d 0 -p cbr -e 210 -c 1 -i 47 -a 1 -x {1.0 0.0 -1 ------- null}
r -t 1.09188 -s 1 -d 0 -p cbr -e 210 -c 1 -i 36 -a 1 -x {1.0 0.0 36 ------- null}
+ -t 1.0936 -s 1 -d 0 -p cbr -e 210 -c 1 -i 48 -a 1 -x {1.0 0.0 48 ------- null}
- -t 1.0936 -s 1 -d 0 -p cbr -e 210 -c 1 -i 48 -a 1 -x {1.0 0.0 48 ------- null}
h -t 1.0936 -s 1 -d 0 -p cbr -e 210 -c 1 -i 48 -a 1 -x {1.0 0.0 -1 ------- null}
r -t 1.09383 -s 1 -d 0 -p cbr -e 210 -c 1 -i 37 -a 1 -x {1.0 0.0 37 ------- null}
+ -t 1.09554999999999 -s 1 -d 0 -p cbr -e 210 -c 1 -i 49 -a 1 -x {1.0 0.0 49 ------- null}
- -t 1.09554999999999 -s 1 -d 0 -p cbr -e 210 -c 1 -i 49 -a 1 -x {1.0 0.0 49 ------- null}
h -t 1.09554999999999 -s 1 -d 0 -p cbr -e 210 -c 1 -i 49 -a 1 -x {1.0 0.0 -1 ------- null}
r -t 1.09578 -s 1 -d 0 -p cbr -e 210 -c 1 -i 38 -a 1 -x {1.0 0.0 38 ------- null}
+ -t 1.09749999999999 -s 1 -d 0 -p cbr -e 210 -c 1 -i 50 -a 1 -x {1.0 0.0 50 ------- null}
- -t 1.09749999999999 -s 1 -d 0 -p cbr -e 210 -c 1 -i 50 -a 1 -x {1.0 0.0 50 ------- null}
h -t 1.09749999999999 -s 1 -d 0 -p cbr -e 210 -c 1 -i 50 -a 1 -x {1.0 0.0 -1 ------- null}
r -t 1.09773 -s 1 -d 0 -p cbr -e 210 -c 1 -i 39 -a 1 -x {1.0 0.0 39 ------- null}
+ -t 1.09944999999999 -s 1 -d 0 -p cbr -e 210 -c 1 -i 51 -a 1 -x {1.0 0.0 51 ------- null}
- -t 1.09944999999999 -s 1 -d 0 -p cbr -e 210 -c 1 -i 51 -a 1 -x {1.0 0.0 51 ------- null}
h -t 1.09944999999999 -s 1 -d 0 -p cbr -e 210 -c 1 -i 51 -a 1 -x {1.0 0.0 -1 ------- null}
r -t 1.09968 -s 1 -d 0 -p cbr -e 210 -c 1 -i 40 -a 1 -x {1.0 0.0 40 ------- null}
+ -t 1.10139999999999 -s 1 -d 0 -p cbr -e 210 -c 1 -i 52 -a 1 -x {1.0 0.0 52 ------- null}
- -t 1.10139999999999 -s 1 -d 0 -p cbr -e 210 -c 1 -i 52 -a 1 -x {1.0 0.0 52 ------- null}
h -t 1.10139999999999 -s 1 -d 0 -p cbr -e 210 -c 1 -i 52 -a 1 -x {1.0 0.0 -1 ------- null}
r -t 1.10163 -s 1 -d 0 -p cbr -e 210 -c 1 -i 41 -a 1 -x {1.0 0.0 41 ------- null}
+ -t 1.10334999999999 -s 1 -d 0 -p cbr -e 210 -c 1 -i 53 -a 1 -x {1.0 0.0 53 ------- null}
- -t 1.10334999999999 -s 1 -d 0 -p cbr -e 210 -c 1 -i 53 -a 1 -x {1.0 0.0 53 ------- null}
h -t 1.10334999999999 -s 1 -d 0 -p cbr -e 210 -c 1 -i 53 -a 1 -x {1.0 0.0 -1 ------- null}
r -t 1.10358 -s 1 -d 0 -p cbr -e 210 -c 1 -i 42 -a 1 -x {1.0 0.0 42 ------- null}
+ -t 1.10529999999999 -s 1 -d 0 -p cbr -e 210 -c 1 -i 54 -a 1 -x {1.0 0.0 54 ------- null}
- -t 1.10529999999999 -s 1 -d 0 -p cbr -e 210 -c 1 -i 54 -a 1 -x {1.0 0.0 54 ------- null}
h -t 1.10529999999999 -s 1 -d 0 -p cbr -e 210 -c 1 -i 54 -a 1 -x {1.0 0.0 -1 ------- null}
r -t 1.10553 -s 1 -d 0 -p cbr -e 210 -c 1 -i 43 -a 1 -x {1.0 0.0 43 ------- null}
+ -t 1.10724999999999 -s 1 -d 0 -p cbr -e 210 -c 1 -i 55 -a 1 -x {1.0 0.0 55 ------- null}
- -t 1.10724999999999 -s 1 -d 0 -p cbr -e 210 -c 1 -i 55 -a 1 -x {1.0 0.0 55 ------- null}
h -t 1.10724999999999 -s 1 -d 0 -p cbr -e 210 -c 1 -i 55 -a 1 -x {1.0 0.0 -1 ------- null}
r -t 1.10748 -s 1 -d 0 -p cbr -e 210 -c 1 -i 44 -a 1 -x {1.0 0.0 44 ------- null}
+ -t 1.10919999999999 -s 1 -d 0 -p cbr -e 210 -c 1 -i 56 -a 1 -x {1.0 0.0 56 ------- null}
- -t 1.10919999999999 -s 1 -d 0 -p cbr -e 210 -c 1 -i 56 -a 1 -x {1.0 0.0 56 ------- null}
h -t 1.10919999999999 -s 1 -d 0 -p cbr -e 210 -c 1 -i 56 -a 1 -x {1.0 0.0 -1 ------- null}
r -t 1.10943 -s 1 -d 0 -p cbr -e 210 -c 1 -i 45 -a 1 -x {1.0 0.0 45 ------- null}
+ -t 1.11114999999999 -s 1 -d 0 -p cbr -e 210 -c 1 -i 57 -a 1 -x {1.0 0.0 57 ------- null}
- -t 1.11114999999999 -s 1 -d 0 -p cbr -e 210 -c 1 -i 57 -a 1 -x {1.0 0.0 57 ------- null}
h -t 1.11114999999999 -s 1 -d 0 -p cbr -e 210 -c 1 -i 57 -a 1 -x {1.0 0.0 -1 ------- null}
r -t 1.11138 -s 1 -d 0 -p cbr -e 210 -c 1 -i 46 -a 1 -x {1.0 0.0 46 ------- null}
+ -t 1.11309999999999 -s 1 -d 0 -p cbr -e 210 -c 1 -i 58 -a 1 -x {1.0 0.0 58 ------- null}
- -t 1.11309999999999 -s 1 -d 0 -p cbr -e 210 -c 1 -i 58 -a 1 -x {1.0 0.0 58 ------- null}
h -t 1.11309999999999 -s 1 -d 0 -p cbr -e 210 -c 1 -i 58 -a 1 -x {1.0 0.0 -1 ------- null}
r -t 1.11333 -s 1 -d 0 -p cbr -e 210 -c 1 -i 47 -a 1 -x {1.0 0.0 47 ------- null}
+ -t 1.11504999999999 -s 1 -d 0 -p cbr -e 210 -c 1 -i 59 -a 1 -x {1.0 0.0 59 ------- null}
- -t 1.11504999999999 -s 1 -d 0 -p cbr -e 210 -c 1 -i 59 -a 1 -x {1.0 0.0 59 ------- null}
h -t 1.11504999999999 -s 1 -d 0 -p cbr -e 210 -c 1 -i 59 -a 1 -x {1.0 0.0 -1 ------- null}
r -t 1.11527999999999 -s 1 -d 0 -p cbr -e 210 -c 1 -i 48 -a 1 -x {1.0 0.0 48 ------- null}
+ -t 1.11699999999999 -s 1 -d 0 -p cbr -e 210 -c 1 -i 60 -a 1 -x {1.0 0.0 60 ------- null}
- -t 1.11699999999999 -s 1 -d 0 -p cbr -e 210 -c 1 -i 60 -a 1 -x {1.0 0.0 60 ------- null}
h -t 1.11699999999999 -s 1 -d 0 -p cbr -e 210 -c 1 -i 60 -a 1 -x {1.0 0.0 -1 ------- null}
r -t 1.11722999999999 -s 1 -d 0 -p cbr -e 210 -c 1 -i 49 -a 1 -x {1.0 0.0 49 ------- null}
+ -t 1.11894999999999 -s 1 -d 0 -p cbr -e 210 -c 1 -i 61 -a 1 -x {1.0 0.0 61 ------- null}
- -t 1.11894999999999 -s 1 -d 0 -p cbr -e 210 -c 1 -i 61 -a 1 -x {1.0 0.0 61 ------- null}
h -t 1.11894999999999 -s 1 -d 0 -p cbr -e 210 -c 1 -i 61 -a 1 -x {1.0 0.0 -1 ------- null}
r -t 1.11917999999999 -s 1 -d 0 -p cbr -e 210 -c 1 -i 50 -a 1 -x {1.0 0.0 50 ------- null}
+ -t 1.12089999999999 -s 1 -d 0 -p cbr -e 210 -c 1 -i 62 -a 1 -x {1.0 0.0 62 ------- null}
- -t 1.12089999999999 -s 1 -d 0 -p cbr -e 210 -c 1 -i 62 -a 1 -x {1.0 0.0 62 ------- null}
h -t 1.12089999999999 -s 1 -d 0 -p cbr -e 210 -c 1 -i 62 -a 1 -x {1.0 0.0 -1 ------- null}
r -t 1.12112999999999 -s 1 -d 0 -p cbr -e 210 -c 1 -i 51 -a 1 -x {1.0 0.0 51 ------- null}
+ -t 1.12284999999999 -s 1 -d 0 -p cbr -e 210 -c 1 -i 63 -a 1 -x {1.0 0.0 63 ------- null}
- -t 1.12284999999999 -s 1 -d 0 -p cbr -e 210 -c 1 -i 63 -a 1 -x {1.0 0.0 63 ------- null}
h -t 1.12284999999999 -s 1 -d 0 -p cbr -e 210 -c 1 -i 63 -a 1 -x {1.0 0.0 -1 ------- null}
r -t 1.12307999999999 -s 1 -d 0 -p cbr -e 210 -c 1 -i 52 -a 1 -x {1.0 0.0 52 ------- null}
+ -t 1.12479999999999 -s 1 -d 0 -p cbr -e 210 -c 1 -i 64 -a 1 -x {1.0 0.0 64 ------- null}
- -t 1.12479999999999 -s 1 -d 0 -p cbr -e 210 -c 1 -i 64 -a 1 -x {1.0 0.0 64 ------- null}
h -t 1.12479999999999 -s 1 -d 0 -p cbr -e 210 -c 1 -i 64 -a 1 -x {1.0 0.0 -1 ------- null}
r -t 1.12502999999999 -s 1 -d 0 -p cbr -e 210 -c 1 -i 53 -a 1 -x {1.0 0.0 53 ------- null}
+ -t 1.12674999999999 -s 1 -d 0 -p cbr -e 210 -c 1 -i 65 -a 1 -x {1.0 0.0 65 ------- null}
- -t 1.12674999999999 -s 1 -d 0 -p cbr -e 210 -c 1 -i 65 -a 1 -x {1.0 0.0 65 ------- null}
h -t 1.12674999999999 -s 1 -d 0 -p cbr -e 210 -c 1 -i 65 -a 1 -x {1.0 0.0 -1 ------- null}
r -t 1.12697999999999 -s 1 -d 0 -p cbr -e 210 -c 1 -i 54 -a 1 -x {1.0 0.0 54 ------- null}
+ -t 1.12869999999999 -s 1 -d 0 -p cbr -e 210 -c 1 -i 66 -a 1 -x {1.0 0.0 66 ------- null}
- -t 1.12869999999999 -s 1 -d 0 -p cbr -e 210 -c 1 -i 66 -a 1 -x {1.0 0.0 66 ------- null}
h -t 1.12869999999999 -s 1 -d 0 -p cbr -e 210 -c 1 -i 66 -a 1 -x {1.0 0.0 -1 ------- null}
r -t 1.12892999999999 -s 1 -d 0 -p cbr -e 210 -c 1 -i 55 -a 1 -x {1.0 0.0 55 ------- null}
+ -t 1.13064999999999 -s 1 -d 0 -p cbr -e 210 -c 1 -i 67 -a 1 -x {1.0 0.0 67 ------- null}
- -t 1.13064999999999 -s 1 -d 0 -p cbr -e 210 -c 1 -i 67 -a 1 -x {1.0 0.0 67 ------- null}
h -t 1.13064999999999 -s 1 -d 0 -p cbr -e 210 -c 1 -i 67 -a 1 -x {1.0 0.0 -1 ------- null}
r -t 1.13087999999999 -s 1 -d 0 -p cbr -e 210 -c 1 -i 56 -a 1 -x {1.0 0.0 56 ------- null}
+ -t 1.13259999999999 -s 1 -d 0 -p cbr -e 210 -c 1 -i 68 -a 1 -x {1.0 0.0 68 ------- null}
- -t 1.13259999999999 -s 1 -d 0 -p cbr -e 210 -c 1 -i 68 -a 1 -x {1.0 0.0 68 ------- null}
h -t 1.13259999999999 -s 1 -d 0 -p cbr -e 210 -c 1 -i 68 -a 1 -x {1.0 0.0 -1 ------- null}
r -t 1.13282999999999 -s 1 -d 0 -p cbr -e 210 -c 1 -i 57 -a 1 -x {1.0 0.0 57 ------- null}
+ -t 1.13454999999999 -s 1 -d 0 -p cbr -e 210 -c 1 -i 69 -a 1 -x {1.0 0.0 69 ------- null}
- -t 1.13454999999999 -s 1 -d 0 -p cbr -e 210 -c 1 -i 69 -a 1 -x {1.0 0.0 69 ------- null}
h -t 1.13454999999999 -s 1 -d 0 -p cbr -e 210 -c 1 -i 69 -a 1 -x {1.0 0.0 -1 ------- null}
r -t 1.13477999999999 -s 1 -d 0 -p cbr -e 210 -c 1 -i 58 -a 1 -x {1.0 0.0 58 ------- null}
+ -t 1.13649999999999 -s 1 -d 0 -p cbr -e 210 -c 1 -i 70 -a 1 -x {1.0 0.0 70 ------- null}
- -t 1.13649999999999 -s 1 -d 0 -p cbr -e 210 -c 1 -i 70 -a 1 -x {1.0 0.0 70 ------- null}
h -t 1.13649999999999 -s 1 -d 0 -p cbr -e 210 -c 1 -i 70 -a 1 -x {1.0 0.0 -1 ------- null}
r -t 1.13672999999999 -s 1 -d 0 -p cbr -e 210 -c 1 -i 59 -a 1 -x {1.0 0.0 59 ------- null}
+ -t 1.13844999999999 -s 1 -d 0 -p cbr -e 210 -c 1 -i 71 -a 1 -x {1.0 0.0 71 ------- null}
- -t 1.13844999999999 -s 1 -d 0 -p cbr -e 210 -c 1 -i 71 -a 1 -x {1.0 0.0 71 ------- null}
h -t 1.13844999999999 -s 1 -d 0 -p cbr -e 210 -c 1 -i 71 -a 1 -x {1.0 0.0 -1 ------- null}
r -t 1.13867999999999 -s 1 -d 0 -p cbr -e 210 -c 1 -i 60 -a 1 -x {1.0 0.0 60 ------- null}
+ -t 1.14039999999999 -s 1 -d 0 -p cbr -e 210 -c 1 -i 72 -a 1 -x {1.0 0.0 72 ------- null}
- -t 1.14039999999999 -s 1 -d 0 -p cbr -e 210 -c 1 -i 72 -a 1 -x {1.0 0.0 72 ------- null}
h -t 1.14039999999999 -s 1 -d 0 -p cbr -e 210 -c 1 -i 72 -a 1 -x {1.0 0.0 -1 ------- null}
r -t 1.14062999999999 -s 1 -d 0 -p cbr -e 210 -c 1 -i 61 -a 1 -x {1.0 0.0 61 ------- null}
+ -t 1.14234999999999 -s 1 -d 0 -p cbr -e 210 -c 1 -i 73 -a 1 -x {1.0 0.0 73 ------- null}
- -t 1.14234999999999 -s 1 -d 0 -p cbr -e 210 -c 1 -i 73 -a 1 -x {1.0 0.0 73 ------- null}
h -t 1.14234999999999 -s 1 -d 0 -p cbr -e 210 -c 1 -i 73 -a 1 -x {1.0 0.0 -1 ------- null}
r -t 1.14257999999999 -s 1 -d 0 -p cbr -e 210 -c 1 -i 62 -a 1 -x {1.0 0.0 62 ------- null}
+ -t 1.14429999999999 -s 1 -d 0 -p cbr -e 210 -c 1 -i 74 -a 1 -x {1.0 0.0 74 ------- null}
- -t 1.14429999999999 -s 1 -d 0 -p cbr -e 210 -c 1 -i 74 -a 1 -x {1.0 0.0 74 ------- null}
h -t 1.14429999999999 -s 1 -d 0 -p cbr -e 210 -c 1 -i 74 -a 1 -x {1.0 0.0 -1 ------- null}
r -t 1.14452999999999 -s 1 -d 0 -p cbr -e 210 -c 1 -i 63 -a 1 -x {1.0 0.0 63 ------- null}
+ -t 1.14624999999999 -s 1 -d 0 -p cbr -e 210 -c 1 -i 75 -a 1 -x {1.0 0.0 75 ------- null}
- -t 1.14624999999999 -s 1 -d 0 -p cbr -e 210 -c 1 -i 75 -a 1 -x {1.0 0.0 75 ------- null}
h -t 1.14624999999999 -s 1 -d 0 -p cbr -e 210 -c 1 -i 75 -a 1 -x {1.0 0.0 -1 ------- null}
r -t 1.14647999999999 -s 1 -d 0 -p cbr -e 210 -c 1 -i 64 -a 1 -x {1.0 0.0 64 ------- null}
+ -t 1.14819999999999 -s 1 -d 0 -p cbr -e 210 -c 1 -i 76 -a 1 -x {1.0 0.0 76 ------- null}
- -t 1.14819999999999 -s 1 -d 0 -p cbr -e 210 -c 1 -i 76 -a 1 -x {1.0 0.0 76 ------- null}
h -t 1.14819999999999 -s 1 -d 0 -p cbr -e 210 -c 1 -i 76 -a 1 -x {1.0 0.0 -1 ------- null}
r -t 1.14842999999999 -s 1 -d 0 -p cbr -e 210 -c 1 -i 65 -a 1 -x {1.0 0.0 65 ------- null}
+ -t 1.15014999999999 -s 1 -d 0 -p cbr -e 210 -c 1 -i 77 -a 1 -x {1.0 0.0 77 ------- null}
- -t 1.15014999999999 -s 1 -d 0 -p cbr -e 210 -c 1 -i 77 -a 1 -x {1.0 0.0 77 ------- null}
h -t 1.15014999999999 -s 1 -d 0 -p cbr -e 210 -c 1 -i 77 -a 1 -x {1.0 0.0 -1 ------- null}
r -t 1.15037999999999 -s 1 -d 0 -p cbr -e 210 -c 1 -i 66 -a 1 -x {1.0 0.0 66 ------- null}
+ -t 1.15209999999999 -s 1 -d 0 -p cbr -e 210 -c 1 -i 78 -a 1 -x {1.0 0.0 78 ------- null}
- -t 1.15209999999999 -s 1 -d 0 -p cbr -e 210 -c 1 -i 78 -a 1 -x {1.0 0.0 78 ------- null}
h -t 1.15209999999999 -s 1 -d 0 -p cbr -e 210 -c 1 -i 78 -a 1 -x {1.0 0.0 -1 ------- null}
r -t 1.15232999999999 -s 1 -d 0 -p cbr -e 210 -c 1 -i 67 -a 1 -x {1.0 0.0 67 ------- null}
+ -t 1.15404999999999 -s 1 -d 0 -p cbr -e 210 -c 1 -i 79 -a 1 -x {1.0 0.0 79 ------- null}
- -t 1.15404999999999 -s 1 -d 0 -p cbr -e 210 -c 1 -i 79 -a 1 -x {1.0 0.0 79 ------- null}
h -t 1.15404999999999 -s 1 -d 0 -p cbr -e 210 -c 1 -i 79 -a 1 -x {1.0 0.0 -1 ------- null}
r -t 1.15427999999999 -s 1 -d 0 -p cbr -e 210 -c 1 -i 68 -a 1 -x {1.0 0.0 68 ------- null}
+ -t 1.15599999999999 -s 1 -d 0 -p cbr -e 210 -c 1 -i 80 -a 1 -x {1.0 0.0 80 ------- null}
- -t 1.15599999999999 -s 1 -d 0 -p cbr -e 210 -c 1 -i 80 -a 1 -x {1.0 0.0 80 ------- null}
h -t 1.15599999999999 -s 1 -d 0 -p cbr -e 210 -c 1 -i 80 -a 1 -x {1.0 0.0 -1 ------- null}
r -t 1.15622999999999 -s 1 -d 0 -p cbr -e 210 -c 1 -i 69 -a 1 -x {1.0 0.0 69 ------- null}
+ -t 1.15794999999999 -s 1 -d 0 -p cbr -e 210 -c 1 -i 81 -a 1 -x {1.0 0.0 81 ------- null}
- -t 1.15794999999999 -s 1 -d 0 -p cbr -e 210 -c 1 -i 81 -a 1 -x {1.0 0.0 81 ------- null}
h -t 1.15794999999999 -s 1 -d 0 -p cbr -e 210 -c 1 -i 81 -a 1 -x {1.0 0.0 -1 ------- null}
r -t 1.15817999999999 -s 1 -d 0 -p cbr -e 210 -c 1 -i 70 -a 1 -x {1.0 0.0 70 ------- null}
+ -t 1.15989999999999 -s 1 -d 0 -p cbr -e 210 -c 1 -i 82 -a 1 -x {1.0 0.0 82 ------- null}
- -t 1.15989999999999 -s 1 -d 0 -p cbr -e 210 -c 1 -i 82 -a 1 -x {1.0 0.0 82 ------- null}
h -t 1.15989999999999 -s 1 -d 0 -p cbr -e 210 -c 1 -i 82 -a 1 -x {1.0 0.0 -1 ------- null}
r -t 1.16012999999999 -s 1 -d 0 -p cbr -e 210 -c 1 -i 71 -a 1 -x {1.0 0.0 71 ------- null}
+ -t 1.16184999999999 -s 1 -d 0 -p cbr -e 210 -c 1 -i 83 -a 1 -x {1.0 0.0 83 ------- null}
- -t 1.16184999999999 -s 1 -d 0 -p cbr -e 210 -c 1 -i 83 -a 1 -x {1.0 0.0 83 ------- null}
h -t 1.16184999999999 -s 1 -d 0 -p cbr -e 210 -c 1 -i 83 -a 1 -x {1.0 0.0 -1 ------- null}
r -t 1.16207999999999 -s 1 -d 0 -p cbr -e 210 -c 1 -i 72 -a 1 -x {1.0 0.0 72 ------- null}
+ -t 1.16379999999999 -s 1 -d 0 -p cbr -e 210 -c 1 -i 84 -a 1 -x {1.0 0.0 84 ------- null}
- -t 1.16379999999999 -s 1 -d 0 -p cbr -e 210 -c 1 -i 84 -a 1 -x {1.0 0.0 84 ------- null}
h -t 1.16379999999999 -s 1 -d 0 -p cbr -e 210 -c 1 -i 84 -a 1 -x {1.0 0.0 -1 ------- null}
r -t 1.16402999999999 -s 1 -d 0 -p cbr -e 210 -c 1 -i 73 -a 1 -x {1.0 0.0 73 ------- null}
+ -t 1.16574999999999 -s 1 -d 0 -p cbr -e 210 -c 1 -i 85 -a 1 -x {1.0 0.0 85 ------- null}
- -t 1.16574999999999 -s 1 -d 0 -p cbr -e 210 -c 1 -i 85 -a 1 -x {1.0 0.0 85 ------- null}
h -t 1.16574999999999 -s 1 -d 0 -p cbr -e 210 -c 1 -i 85 -a 1 -x {1.0 0.0 -1 ------- null}
r -t 1.16597999999999 -s 1 -d 0 -p cbr -e 210 -c 1 -i 74 -a 1 -x {1.0 0.0 74 ------- null}
+ -t 1.16769999999999 -s 1 -d 0 -p cbr -e 210 -c 1 -i 86 -a 1 -x {1.0 0.0 86 ------- null}
- -t 1.16769999999999 -s 1 -d 0 -p cbr -e 210 -c 1 -i 86 -a 1 -x {1.0 0.0 86 ------- null}
h -t 1.16769999999999 -s 1 -d 0 -p cbr -e 210 -c 1 -i 86 -a 1 -x {1.0 0.0 -1 ------- null}
r -t 1.16792999999999 -s 1 -d 0 -p cbr -e 210 -c 1 -i 75 -a 1 -x {1.0 0.0 75 ------- null}
+ -t 1.16964999999999 -s 1 -d 0 -p cbr -e 210 -c 1 -i 87 -a 1 -x {1.0 0.0 87 ------- null}
- -t 1.16964999999999 -s 1 -d 0 -p cbr -e 210 -c 1 -i 87 -a 1 -x {1.0 0.0 87 ------- null}
h -t 1.16964999999999 -s 1 -d 0 -p cbr -e 210 -c 1 -i 87 -a 1 -x {1.0 0.0 -1 ------- null}
r -t 1.16987999999999 -s 1 -d 0 -p cbr -e 210 -c 1 -i 76 -a 1 -x {1.0 0.0 76 ------- null}
+ -t 1.17159999999999 -s 1 -d 0 -p cbr -e 210 -c 1 -i 88 -a 1 -x {1.0 0.0 88 ------- null}
- -t 1.17159999999999 -s 1 -d 0 -p cbr -e 210 -c 1 -i 88 -a 1 -x {1.0 0.0 88 ------- null}
h -t 1.17159999999999 -s 1 -d 0 -p cbr -e 210 -c 1 -i 88 -a 1 -x {1.0 0.0 -1 ------- null}
r -t 1.17182999999999 -s 1 -d 0 -p cbr -e 210 -c 1 -i 77 -a 1 -x {1.0 0.0 77 ------- null}
+ -t 1.17354999999999 -s 1 -d 0 -p cbr -e 210 -c 1 -i 89 -a 1 -x {1.0 0.0 89 ------- null}