V -t * -v 1.0a5 -a 0
A -t * -n 1 -p 0 -o 0x7fffffff -c 30 -a 1
A -t * -h 1 -m 1073741823 -s 0
c -t * -i 1 -n Blue
c -t * -i 2 -n Red
n -t * -a 4 -s 4 -S UP -v circle -c black -i black
n -t * -a 0 -s 0 -S UP -v circle -c black -i black
n -t * -a 1 -s 1 -S UP -v circle -c black -i black
n -t * -a 2 -s 2 -S UP -v circle -c black -i black
n -t * -a 3 -s 3 -S UP -v circle -c black -i black
l -t * -s 0 -d 2 -S UP -r 1500000 -D 0.002 -c black -o right-down
l -t * -s 1 -d 2 -S UP -r 1500000 -D 0.002 -c black -o right-up
l -t * -s 2 -d 3 -S UP -r 1500000 -D 0.002 -c black -o right
l -t * -s 3 -d 4 -S UP -r 1500000 -D 0.002 -c black -o right
+ -t 0 -s 0 -d 2 -p cbr -e 210 -c 1 -i 0 -a 1 -x {0.0 4.0 0 ------- null}
- -t 0 -s 0 -d 2 -p cbr -e 210 -c 1 -i 0 -a 1 -x {0.0 4.0 0 ------- null}
h -t 0 -s 0 -d 2 -p cbr -e 210 -c 1 -i 0 -a 1 -x {0.0 4.0 -1 ------- null}
+ -t 0 -s 1 -d 2 -p cbr -e 210 -c 2 -i 1 -a 2 -x {1.0 4.1 0 ------- null}
- -t 0 -s 1 -d 2 -p cbr -e 210 -c 2 -i 1 -a 2 -x {1.0 4.1 0 ------- null}
h -t 0 -s 1 -d 2 -p cbr -e 210 -c 2 -i 1 -a 2 -x {1.0 4.1 -1 ------- null}
+ -t 0.00166336633663366 -s 0 -d 2 -p cbr -e 210 -c 1 -i 2 -a 1 -x {0.0 4.0 1 ------- null}
- -t 0.00166336633663366 -s 0 -d 2 -p cbr -e 210 -c 1 -i 2 -a 1 -x {0.0 4.0 1 ------- null}
h -t 0.00166336633663366 -s 0 -d 2 -p cbr -e 210 -c 1 -i 2 -a 1 -x {0.0 4.0 -1 ------- null}
r -t 0.00312 -s 0 -d 2 -p cbr -e 210 -c 1 -i 0 -a 1 -x {0.0 4.0 0 ------- null}
+ -t 0.00312 -s 2 -d 3 -p cbr -e 210 -c 1 -i 0 -a 1 -x {0.0 4.0 0 ------- null}
- -t 0.00312 -s 2 -d 3 -p cbr -e 210 -c 1 -i 0 -a 1 -x {0.0 4.0 0 ------- null}
h -t 0.00312 -s 2 -d 3 -p cbr -e 210 -c 1 -i 0 -a 1 -x {0.0 4.0 -1 ------- null}
r -t 0.00312 -s 1 -d 2 -p cbr -e 210 -c 2 -i 1 -a 2 -x {1.0 4.1 0 ------- null}
+ -t 0.00312 -s 2 -d 3 -p cbr -e 210 -c 2 -i 1 -a 2 -x {1.0 4.1 0 ------- null}
+ -t 0.00329411764705882 -s 1 -d 2 -p cbr -e 210 -c 2 -i 3 -a 2 -x {1.0 4.1 1 ------- null}
- -t 0.00329411764705882 -s 1 -d 2 -p cbr -e 210 -c 2 -i 3 -a 2 -x {1.0 4.1 1 ------- null}
h -t 0.00329411764705882 -s 1 -d 2 -p cbr -e 210 -c 2 -i 3 -a 2 -x {1.0 4.1 -1 ------- null}
+ -t 0.00332673267326733 -s 0 -d 2 -p cbr -e 210 -c 1 -i 4 -a 1 -x {0.0 4.0 2 ------- null}
- -t 0.00332673267326733 -s 0 -d 2 -p cbr -e 210 -c 1 -i 4 -a 1 -x {0.0 4.0 2 ------- null}
h -t 0.00332673267326733 -s 0 -d 2 -p cbr -e 210 -c 1 -i 4 -a 1 -x {0.0 4.0 -1 ------- null}
- -t 0.00424 -s 2 -d 3 -p cbr -e 210 -c 2 -i 1 -a 2 -x {1.0 4.1 0 ------- null}
h -t 0.00424 -s 2 -d 3 -p cbr -e 210 -c 2 -i 1 -a 2 -x {1.0 4.1 -1 ------- null}
r -t 0.00478336633663366 -s 0 -d 2 -p cbr -e 210 -c 1 -i 2 -a 1 -x {0.0 4.0 1 ------- null}
+ -t 0.00478336633663366 -s 2 -d 3 -p cbr -e 210 -c 1 -i 2 -a 1 -x {0.0 4.0 1 ------- null}
+ -t 0.00499009900990099 -s 0 -d 2 -p cbr -e 210 -c 1 -i 5 -a 1 -x {0.0 4.0 3 ------- null}
- -t 0.00499009900990099 -s 0 -d 2 -p cbr -e 210 -c 1 -i 5 -a 1 -x {0.0 4.0 3 ------- null}
h -t 0.00499009900990099 -s 0 -d 2 -p cbr -e 210 -c 1 -i 5 -a 1 -x {0.0 4.0 -1 ------- null}
- -t 0.00536 -s 2 -d 3 -p cbr -e 210 -c 1 -i 2 -a 1 -x {0.0 4.0 1 ------- null}
h -t 0.00536 -s 2 -d 3 -p cbr -e 210 -c 1 -i 2 -a 1 -x {0.0 4.0 -1 ------- null}
r -t 0.00624 -s 2 -d 3 -p cbr -e 210 -c 1 -i 0 -a 1 -x {0.0 4.0 0 ------- null}
+ -t 0.00624 -s 3 -d 4 -p cbr -e 210 -c 1 -i 0 -a 1 -x {0.0 4.0 0 ------- null}
- -t 0.00624 -s 3 -d 4 -p cbr -e 210 -c 1 -i 0 -a 1 -x {0.0 4.0 0 ------- null}
h -t 0.00624 -s 3 -d 4 -p cbr -e 210 -c 1 -i 0 -a 1 -x {0.0 4.0 -1 ------- null}
r -t 0.00641411764705882 -s 1 -d 2 -p cbr -e 210 -c 2 -i 3 -a 2 -x {1.0 4.1 1 ------- null}
+ -t 0.00641411764705882 -s 2 -d 3 -p cbr -e 210 -c 2 -i 3 -a 2 -x {1.0 4.1 1 ------- null}
r -t 0.00644673267326733 -s 0 -d 2 -p cbr -e 210 -c 1 -i 4 -a 1 -x {0.0 4.0 2 ------- null}
+ -t 0.00644673267326733 -s 2 -d 3 -p cbr -e 210 -c 1 -i 4 -a 1 -x {0.0 4.0 2 ------- null}
- -t 0.00648 -s 2 -d 3 -p cbr -e 210 -c 2 -i 3 -a 2 -x {1.0 4.1 1 ------- null}
h -t 0.00648 -s 2 -d 3 -p cbr -e 210 -c 2 -i 3 -a 2 -x {1.0 4.1 -1 ------- null}
+ -t 0.00658823529411765 -s 1 -d 2 -p cbr -e 210 -c 2 -i 6 -a 2 -x {1.0 4.1 2 ------- null}
- -t 0.00658823529411765 -s 1 -d 2 -p cbr -e 210 -c 2 -i 6 -a 2 -x {1.0 4.1 2 ------- null}
h -t 0.00658823529411765 -s 1 -d 2 -p cbr -e 210 -c 2 -i 6 -a 2 -x {1.0 4.1 -1 ------- null}
+ -t 0.00665346534653465 -s 0 -d 2 -p cbr -e 210 -c 1 -i 7 -a 1 -x {0.0 4.0 4 ------- null}
- -t 0.00665346534653465 -s 0 -d 2 -p cbr -e 210 -c 1 -i 7 -a 1 -x {0.0 4.0 4 ------- null}
h -t 0.00665346534653465 -s 0 -d 2 -p cbr -e 210 -c 1 -i 7 -a 1 -x {0.0 4.0 -1 ------- null}
r -t 0.00736 -s 2 -d 3 -p cbr -e 210 -c 2 -i 1 -a 2 -x {1.0 4.1 0 ------- null}
+ -t 0.00736 -s 3 -d 4 -p cbr -e 210 -c 2 -i 1 -a 2 -x {1.0 4.1 0 ------- null}
- -t 0.00736 -s 3 -d 4 -p cbr -e 210 -c 2 -i 1 -a 2 -x {1.0 4.1 0 ------- null}
h -t 0.00736 -s 3 -d 4 -p cbr -e 210 -c 2 -i 1 -a 2 -x {1.0 4.1 -1 ------- null}
- -t 0.0076 -s 2 -d 3 -p cbr -e 210 -c 1 -i 4 -a 1 -x {0.0 4.0 2 ------- null}
h -t 0.0076 -s 2 -d 3 -p cbr -e 210 -c 1 -i 4 -a 1 -x {0.0 4.0 -1 ------- null}
r -t 0.00811009900990099 -s 0 -d 2 -p cbr -e 210 -c 1 -i 5 -a 1 -x {0.0 4.0 3 ------- null}
+ -t 0.00811009900990099 -s 2 -d 3 -p cbr -e 210 -c 1 -i 5 -a 1 -x {0.0 4.0 3 ------- null}
+ -t 0.00831683168316832 -s 0 -d 2 -p cbr -e 210 -c 1 -i 8 -a 1 -x {0.0 4.0 5 ------- null}
- -t 0.00831683168316832 -s 0 -d 2 -p cbr -e 210 -c 1 -i 8 -a 1 -x {0.0 4.0 5 ------- null}
h -t 0.00831683168316832 -s 0 -d 2 -p cbr -e 210 -c 1 -i 8 -a 1 -x {0.0 4.0 -1 ------- null}
r -t 0.00848 -s 2 -d 3 -p cbr -e 210 -c 1 -i 2 -a 1 -x {0.0 4.0 1 ------- null}
+ -t 0.00848 -s 3 -d 4 -p cbr -e 210 -c 1 -i 2 -a 1 -x {0.0 4.0 1 ------- null}
- -t 0.00848 -s 3 -d 4 -p cbr -e 210 -c 1 -i 2 -a 1 -x {0.0 4.0 1 ------- null}
h -t 0.00848 -s 3 -d 4 -p cbr -e 210 -c 1 -i 2 -a 1 -x {0.0 4.0 -1 ------- null}
- -t 0.00872 -s 2 -d 3 -p cbr -e 210 -c 1 -i 5 -a 1 -x {0.0 4.0 3 ------- null}
h -t 0.00872 -s 2 -d 3 -p cbr -e 210 -c 1 -i 5 -a 1 -x {0.0 4.0 -1 ------- null}
r -t 0.00936 -s 3 -d 4 -p cbr -e 210 -c 1 -i 0 -a 1 -x {0.0 4.0 0 ------- null}
r -t 0.0096 -s 2 -d 3 -p cbr -e 210 -c 2 -i 3 -a 2 -x {1.0 4.1 1 ------- null}
+ -t 0.0096 -s 3 -d 4 -p cbr -e 210 -c 2 -i 3 -a 2 -x {1.0 4.1 1 ------- null}
- -t 0.0096 -s 3 -d 4 -p cbr -e 210 -c 2 -i 3 -a 2 -x {1.0 4.1 1 ------- null}
h -t 0.0096 -s 3 -d 4 -p cbr -e 210 -c 2 -i 3 -a 2 -x {1.0 4.1 -1 ------- null}
r -t 0.00970823529411765 -s 1 -d 2 -p cbr -e 210 -c 2 -i 6 -a 2 -x {1.0 4.1 2 ------- null}
+ -t 0.00970823529411765 -s 2 -d 3 -p cbr -e 210 -c 2 -i 6 -a 2 -x {1.0 4.1 2 ------- null}
r -t 0.00977346534653465 -s 0 -d 2 -p cbr -e 210 -c 1 -i 7 -a 1 -x {0.0 4.0 4 ------- null}
+ -t 0.00977346534653465 -s 2 -d 3 -p cbr -e 210 -c 1 -i 7 -a 1 -x {0.0 4.0 4 ------- null}
- -t 0.00984 -s 2 -d 3 -p cbr -e 210 -c 2 -i 6 -a 2 -x {1.0 4.1 2 ------- null}
h -t 0.00984 -s 2 -d 3 -p cbr -e 210 -c 2 -i 6 -a 2 -x {1.0 4.1 -1 ------- null}
+ -t 0.00988235294117647 -s 1 -d 2 -p cbr -e 210 -c 2 -i 9 -a 2 -x {1.0 4.1 3 ------- null}
- -t 0.00988235294117647 -s 1 -d 2 -p cbr -e 210 -c 2 -i 9 -a 2 -x {1.0 4.1 3 ------- null}
h -t 0.00988235294117647 -s 1 -d 2 -p cbr -e 210 -c 2 -i 9 -a 2 -x {1.0 4.1 -1 ------- null}
+ -t 0.00998019801980198 -s 0 -d 2 -p cbr -e 210 -c 1 -i 10 -a 1 -x {0.0 4.0 6 ------- null}
- -t 0.00998019801980198 -s 0 -d 2 -p cbr -e 210 -c 1 -i 10 -a 1 -x {0.0 4.0 6 ------- null}
h -t 0.00998019801980198 -s 0 -d 2 -p cbr -e 210 -c 1 -i 10 -a 1 -x {0.0 4.0 -1 ------- null}
r -t 0.01048 -s 3 -d 4 -p cbr -e 210 -c 2 -i 1 -a 2 -x {1.0 4.1 0 ------- null}
r -t 0.01072 -s 2 -d 3 -p cbr -e 210 -c 1 -i 4 -a 1 -x {0.0 4.0 2 ------- null}
+ -t 0.01072 -s 3 -d 4 -p cbr -e 210 -c 1 -i 4 -a 1 -x {0.0 4.0 2 ------- null}
- -t 0.01072 -s 3 -d 4 -p cbr -e 210 -c 1 -i 4 -a 1 -x {0.0 4.0 2 ------- null}
h -t 0.01072 -s 3 -d 4 -p cbr -e 210 -c 1 -i 4 -a 1 -x {0.0 4.0 -1 ------- null}
- -t 0.01096 -s 2 -d 3 -p cbr -e 210 -c 1 -i 7 -a 1 -x {0.0 4.0 4 ------- null}
h -t 0.01096 -s 2 -d 3 -p cbr -e 210 -c 1 -i 7 -a 1 -x {0.0 4.0 -1 ------- null}
r -t 0.0114368316831683 -s 0 -d 2 -p cbr -e 210 -c 1 -i 8 -a 1 -x {0.0 4.0 5 ------- null}
+ -t 0.0114368316831683 -s 2 -d 3 -p cbr -e 210 -c 1 -i 8 -a 1 -x {0.0 4.0 5 ------- null}
r -t 0.0116 -s 3 -d 4 -p cbr -e 210 -c 1 -i 2 -a 1 -x {0.0 4.0 1 ------- null}
+ -t 0.0116435643564356 -s 0 -d 2 -p cbr -e 210 -c 1 -i 11 -a 1 -x {0.0 4.0 7 ------- null}
- -t 0.0116435643564356 -s 0 -d 2 -p cbr -e 210 -c 1 -i 11 -a 1 -x {0.0 4.0 7 ------- null}
h -t 0.0116435643564356 -s 0 -d 2 -p cbr -e 210 -c 1 -i 11 -a 1 -x {0.0 4.0 -1 ------- null}
r -t 0.01184 -s 2 -d 3 -p cbr -e 210 -c 1 -i 5 -a 1 -x {0.0 4.0 3 ------- null}
+ -t 0.01184 -s 3 -d 4 -p cbr -e 210 -c 1 -i 5 -a 1 -x {0.0 4.0 3 ------- null}
- -t 0.01184 -s 3 -d 4 -p cbr -e 210 -c 1 -i 5 -a 1 -x {0.0 4.0 3 ------- null}
h -t 0.01184 -s 3 -d 4 -p cbr -e 210 -c 1 -i 5 -a 1 -x {0.0 4.0 -1 ------- null}
- -t 0.01208 -s 2 -d 3 -p cbr -e 210 -c 1 -i 8 -a 1 -x {0.0 4.0 5 ------- null}
h -t 0.01208 -s 2 -d 3 -p cbr -e 210 -c 1 -i 8 -a 1 -x {0.0 4.0 -1 ------- null}
r -t 0.01272 -s 3 -d 4 -p cbr -e 210 -c 2 -i 3 -a 2 -x {1.0 4.1 1 ------- null}
r -t 0.01296 -s 2 -d 3 -p cbr -e 210 -c 2 -i 6 -a 2 -x {1.0 4.1 2 ------- null}
+ -t 0.01296 -s 3 -d 4 -p cbr -e 210 -c 2 -i 6 -a 2 -x {1.0 4.1 2 ------- null}
- -t 0.01296 -s 3 -d 4 -p cbr -e 210 -c 2 -i 6 -a 2 -x {1.0 4.1 2 ------- null}
h -t 0.01296 -s 3 -d 4 -p cbr -e 210 -c 2 -i 6 -a 2 -x {1.0 4.1 -1 ------- null}
r -t 0.0130023529411765 -s 1 -d 2 -p cbr -e 210 -c 2 -i 9 -a 2 -x {1.0 4.1 3 ------- null}
+ -t 0.0130023529411765 -s 2 -d 3 -p cbr -e 210 -c 2 -i 9 -a 2 -x {1.0 4.1 3 ------- null}
r -t 0.013100198019802 -s 0 -d 2 -p cbr -e 210 -c 1 -i 10 -a 1 -x {0.0 4.0 6 ------- null}
+ -t 0.013100198019802 -s 2 -d 3 -p cbr -e 210 -c 1 -i 10 -a 1 -x {0.0 4.0 6 ------- null}
+ -t 0.0131764705882353 -s 1 -d 2 -p cbr -e 210 -c 2 -i 12 -a 2 -x {1.0 4.1 4 ------- null}
- -t 0.0131764705882353 -s 1 -d 2 -p cbr -e 210 -c 2 -i 12 -a 2 -x {1.0 4.1 4 ------- null}
h -t 0.0131764705882353 -s 1 -d 2 -p cbr -e 210 -c 2 -i 12 -a 2 -x {1.0 4.1 -1 ------- null}
- -t 0.0132 -s 2 -d 3 -p cbr -e 210 -c 2 -i 9 -a 2 -x {1.0 4.1 3 ------- null}
h -t 0.0132 -s 2 -d 3 -p cbr -e 210 -c 2 -i 9 -a 2 -x {1.0 4.1 -1 ------- null}
+ -t 0.0133069306930693 -s 0 -d 2 -p cbr -e 210 -c 1 -i 13 -a 1 -x {0.0 4.0 8 ------- null}
- -t 0.0133069306930693 -s 0 -d 2 -p cbr -e 210 -c 1 -i 13 -a 1 -x {0.0 4.0 8 ------- null}
h -t 0.0133069306930693 -s 0 -d 2 -p cbr -e 210 -c 1 -i 13 -a 1 -x {0.0 4.0 -1 ------- null}
r -t 0.01384 -s 3 -d 4 -p cbr -e 210 -c 1 -i 4 -a 1 -x {0.0 4.0 2 ------- null}
r -t 0.01408 -s 2 -d 3 -p cbr -e 210 -c 1 -i 7 -a 1 -x {0.0 4.0 4 ------- null}
+ -t 0.01408 -s 3 -d 4 -p cbr -e 210 -c 1 -i 7 -a 1 -x {0.0 4.0 4 ------- null}
- -t 0.01408 -s 3 -d 4 -p cbr -e 210 -c 1 -i 7 -a 1 -x {0.0 4.0 4 ------- null}
h -t 0.01408 -s 3 -d 4 -p cbr -e 210 -c 1 -i 7 -a 1 -x {0.0 4.0 -1 ------- null}
- -t 0.01432 -s 2 -d 3 -p cbr -e 210 -c 1 -i 10 -a 1 -x {0.0 4.0 6 ------- null}
h -t 0.01432 -s 2 -d 3 -p cbr -e 210 -c 1 -i 10 -a 1 -x {0.0 4.0 -1 ------- null}
r -t 0.0147635643564356 -s 0 -d 2 -p cbr -e 210 -c 1 -i 11 -a 1 -x {0.0 4.0 7 ------- null}
+ -t 0.0147635643564356 -s 2 -d 3 -p cbr -e 210 -c 1 -i 11 -a 1 -x {0.0 4.0 7 ------- null}
r -t 0.01496 -s 3 -d 4 -p cbr -e 210 -c 1 -i 5 -a 1 -x {0.0 4.0 3 ------- null}
+ -t 0.014970297029703 -s 0 -d 2 -p cbr -e 210 -c 1 -i 14 -a 1 -x {0.0 4.0 9 ------- null}
- -t 0.014970297029703 -s 0 -d 2 -p cbr -e 210 -c 1 -i 14 -a 1 -x {0.0 4.0 9 ------- null}
h -t 0.014970297029703 -s 0 -d 2 -p cbr -e 210 -c 1 -i 14 -a 1 -x {0.0 4.0 -1 ------- null}
r -t 0.0152 -s 2 -d 3 -p cbr -e 210 -c 1 -i 8 -a 1 -x {0.0 4.0 5 ------- null}
+ -t 0.0152 -s 3 -d 4 -p cbr -e 210 -c 1 -i 8 -a 1 -x {0.0 4.0 5 ------- null}
- -t 0.0152 -s 3 -d 4 -p cbr -e 210 -c 1 -i 8 -a 1 -x {0.0 4.0 5 ------- null}
h -t 0.0152 -s 3 -d 4 -p cbr -e 210 -c 1 -i 8 -a 1 -x {0.0 4.0 -1 ------- null}
- -t 0.01544 -s 2 -d 3 -p cbr -e 210 -c 1 -i 11 -a 1 -x {0.0 4.0 7 ------- null}
h -t 0.01544 -s 2 -d 3 -p cbr -e 210 -c 1 -i 11 -a 1 -x {0.0 4.0 -1 ------- null}
r -t 0.01608 -s 3 -d 4 -p cbr -e 210 -c 2 -i 6 -a 2 -x {1.0 4.1 2 ------- null}
r -t 0.0162964705882353 -s 1 -d 2 -p cbr -e 210 -c 2 -i 12 -a 2 -x {1.0 4.1 4 ------- null}
+ -t 0.0162964705882353 -s 2 -d 3 -p cbr -e 210 -c 2 -i 12 -a 2 -x {1.0 4.1 4 ------- null}
r -t 0.01632 -s 2 -d 3 -p cbr -e 210 -c 2 -i 9 -a 2 -x {1.0 4.1 3 ------- null}
+ -t 0.01632 -s 3 -d 4 -p cbr -e 210 -c 2 -i 9 -a 2 -x {1.0 4.1 3 ------- null}
- -t 0.01632 -s 3 -d 4 -p cbr -e 210 -c 2 -i 9 -a 2 -x {1.0 4.1 3 ------- null}
h -t 0.01632 -s 3 -d 4 -p cbr -e 210 -c 2 -i 9 -a 2 -x {1.0 4.1 -1 ------- null}
r -t 0.0164269306930693 -s 0 -d 2 -p cbr -e 210 -c 1 -i 13 -a 1 -x {0.0 4.0 8 ------- null}
+ -t 0.0164269306930693 -s 2 -d 3 -p cbr -e 210 -c 1 -i 13 -a 1 -x {0.0 4.0 8 ------- null}
+ -t 0.0164705882352941 -s 1 -d 2 -p cbr -e 210 -c 2 -i 15 -a 2 -x {1.0 4.1 5 ------- null}
- -t 0.0164705882352941 -s 1 -d 2 -p cbr -e 210 -c 2 -i 15 -a 2 -x {1.0 4.1 5 ------- null}
h -t 0.0164705882352941 -s 1 -d 2 -p cbr -e 210 -c 2 -i 15 -a 2 -x {1.0 4.1 -1 ------- null}
- -t 0.01656 -s 2 -d 3 -p cbr -e 210 -c 2 -i 12 -a 2 -x {1.0 4.1 4 ------- null}
h -t 0.01656 -s 2 -d 3 -p cbr -e 210 -c 2 -i 12 -a 2 -x {1.0 4.1 -1 ------- null}
+ -t 0.0166336633663366 -s 0 -d 2 -p cbr -e 210 -c 1 -i 16 -a 1 -x {0.0 4.0 10 ------- null}
- -t 0.0166336633663366 -s 0 -d 2 -p cbr -e 210 -c 1 -i 16 -a 1 -x {0.0 4.0 10 ------- null}
h -t 0.0166336633663366 -s 0 -d 2 -p cbr -e 210 -c 1 -i 16 -a 1 -x {0.0 4.0 -1 ------- null}
r -t 0.0172 -s 3 -d 4 -p cbr -e 210 -c 1 -i 7 -a 1 -x {0.0 4.0 4 ------- null}
r -t 0.01744 -s 2 -d 3 -p cbr -e 210 -c 1 -i 10 -a 1 -x {0.0 4.0 6 ------- null}
+ -t 0.01744 -s 3 -d 4 -p cbr -e 210 -c 1 -i 10 -a 1 -x {0.0 4.0 6 ------- null}
- -t 0.01744 -s 3 -d 4 -p cbr -e 210 -c 1 -i 10 -a 1 -x {0.0 4.0 6 ------- null}
h -t 0.01744 -s 3 -d 4 -p cbr -e 210 -c 1 -i 10 -a 1 -x {0.0 4.0 -1 ------- null}
- -t 0.01768 -s 2 -d 3 -p cbr -e 210 -c 1 -i 13 -a 1 -x {0.0 4.0 8 ------- null}
h -t 0.01768 -s 2 -d 3 -p cbr -e 210 -c 1 -i 13 -a 1 -x {0.0 4.0 -1 ------- null}
r -t 0.018090297029703 -s 0 -d 2 -p cbr -e 210 -c 1 -i 14 -a 1 -x {0.0 4.0 9 ------- null}
+ -t 0.018090297029703 -s 2 -d 3 -p cbr -e 210 -c 1 -i 14 -a 1 -x {0.0 4.0 9 ------- null}
+ -t 0.0182970297029703 -s 0 -d 2 -p cbr -e 210 -c 1 -i 17 -a 1 -x {0.0 4.0 11 ------- null}
- -t 0.0182970297029703 -s 0 -d 2 -p cbr -e 210 -c 1 -i 17 -a 1 -x {0.0 4.0 11 ------- null}
h -t 0.0182970297029703 -s 0 -d 2 -p cbr -e 210 -c 1 -i 17 -a 1 -x {0.0 4.0 -1 ------- null}
r -t 0.01832 -s 3 -d 4 -p cbr -e 210 -c 1 -i 8 -a 1 -x {0.0 4.0 5 ------- null}
r -t 0.01856 -s 2 -d 3 -p cbr -e 210 -c 1 -i 11 -a 1 -x {0.0 4.0 7 ------- null}
+ -t 0.01856 -s 3 -d 4 -p cbr -e 210 -c 1 -i 11 -a 1 -x {0.0 4.0 7 ------- null}
- -t 0.01856 -s 3 -d 4 -p cbr -e 210 -c 1 -i 11 -a 1 -x {0.0 4.0 7 ------- null}
h -t 0.01856 -s 3 -d 4 -p cbr -e 210 -c 1 -i 11 -a 1 -x {0.0 4.0 -1 ------- null}
- -t 0.0188 -s 2 -d 3 -p cbr -e 210 -c 1 -i 14 -a 1 -x {0.0 4.0 9 ------- null}
h -t 0.0188 -s 2 -d 3 -p cbr -e 210 -c 1 -i 14 -a 1 -x {0.0 4.0 -1 ------- null}
r -t 0.01944 -s 3 -d 4 -p cbr -e 210 -c 2 -i 9 -a 2 -x {1.0 4.1 3 ------- null}
r -t 0.0195905882352941 -s 1 -d 2 -p cbr -e 210 -c 2 -i 15 -a 2 -x {1.0 4.1 5 ------- null}
+ -t 0.0195905882352941 -s 2 -d 3 -p cbr -e 210 -c 2 -i 15 -a 2 -x {1.0 4.1 5 ------- null}
r -t 0.01968 -s 2 -d 3 -p cbr -e 210 -c 2 -i 12 -a 2 -x {1.0 4.1 4 ------- null}
+ -t 0.01968 -s 3 -d 4 -p cbr -e 210 -c 2 -i 12 -a 2 -x {1.0 4.1 4 ------- null}
- -t 0.01968 -s 3 -d 4 -p cbr -e 210 -c 2 -i 12 -a 2 -x {1.0 4.1 4 ------- null}
h -t 0.01968 -s 3 -d 4 -p cbr -e 210 -c 2 -i 12 -a 2 -x {1.0 4.1 -1 ------- null}
r -t 0.0197536633663366 -s 0 -d 2 -p cbr -e 210 -c 1 -i 16 -a 1 -x {0.0 4.0 10 ------- null}
+ -t 0.0197536633663366 -s 2 -d 3 -p cbr -e 210 -c 1 -i 16 -a 1 -x {0.0 4.0 10 ------- null}
+ -t 0.0197647058823529 -s 1 -d 2 -p cbr -e 210 -c 2 -i 18 -a 2 -x {1.0 4.1 6 ------- null}
- -t 0.0197647058823529 -s 1 -d 2 -p cbr -e 210 -c 2 -i 18 -a 2 -x {1.0 4.1 6 ------- null}
h -t 0.0197647058823529 -s 1 -d 2 -p cbr -e 210 -c 2 -i 18 -a 2 -x {1.0 4.1 -1 ------- null}
- -t 0.01992 -s 2 -d 3 -p cbr -e 210 -c 2 -i 15 -a 2 -x {1.0 4.1 5 ------- null}
h -t 0.01992 -s 2 -d 3 -p cbr -e 210 -c 2 -i 15 -a 2 -x {1.0 4.1 -1 ------- null}
+ -t 0.019960396039604 -s 0 -d 2 -p cbr -e 210 -c 1 -i 19 -a 1 -x {0.0 4.0 12 ------- null}
- -t 0.019960396039604 -s 0 -d 2 -p cbr -e 210 -c 1 -i 19 -a 1 -x {0.0 4.0 12 ------- null}
h -t 0.019960396039604 -s 0 -d 2 -p cbr -e 210 -c 1 -i 19 -a 1 -x {0.0 4.0 -1 ------- null}
r -t 0.02056 -s 3 -d 4 -p cbr -e 210 -c 1 -i 10 -a 1 -x {0.0 4.0 6 ------- null}
r -t 0.0208 -s 2 -d 3 -p cbr -e 210 -c 1 -i 13 -a 1 -x {0.0 4.0 8 ------- null}
+ -t 0.0208 -s 3 -d 4 -p cbr -e 210 -c 1 -i 13 -a 1 -x {0.0 4.0 8 ------- null}
- -t 0.0208 -s 3 -d 4 -p cbr -e 210 -c 1 -i 13 -a 1 -x {0.0 4.0 8 ------- null}
h -t 0.0208 -s 3 -d 4 -p cbr -e 210 -c 1 -i 13 -a 1 -x {0.0 4.0 -1 ------- null}
- -t 0.02104 -s 2 -d 3 -p cbr -e 210 -c 1 -i 16 -a 1 -x {0.0 4.0 10 ------- null}
h -t 0.02104 -s 2 -d 3 -p cbr -e 210 -c 1 -i 16 -a 1 -x {0.0 4.0 -1 ------- null}
r -t 0.0214170297029703 -s 0 -d 2 -p cbr -e 210 -c 1 -i 17 -a 1 -x {0.0 4.0 11 ------- null}
+ -t 0.0214170297029703 -s 2 -d 3 -p cbr -e 210 -c 1 -i 17 -a 1 -x {0.0 4.0 11 ------- null}
+ -t 0.0216237623762376 -s 0 -d 2 -p cbr -e 210 -c 1 -i 20 -a 1 -x {0.0 4.0 13 ------- null}
- -t 0.0216237623762376 -s 0 -d 2 -p cbr -e 210 -c 1 -i 20 -a 1 -x {0.0 4.0 13 ------- null}
h -t 0.0216237623762376 -s 0 -d 2 -p cbr -e 210 -c 1 -i 20 -a 1 -x {0.0 4.0 -1 ------- null}
r -t 0.02168 -s 3 -d 4 -p cbr -e 210 -c 1 -i 11 -a 1 -x {0.0 4.0 7 ------- null}
r -t 0.02192 -s 2 -d 3 -p cbr -e 210 -c 1 -i 14 -a 1 -x {0.0 4.0 9 ------- null}
+ -t 0.02192 -s 3 -d 4 -p cbr -e 210 -c 1 -i 14 -a 1 -x {0.0 4.0 9 ------- null}
- -t 0.02192 -s 3 -d 4 -p cbr -e 210 -c 1 -i 14 -a 1 -x {0.0 4.0 9 ------- null}
h -t 0.02192 -s 3 -d 4 -p cbr -e 210 -c 1 -i 14 -a 1 -x {0.0 4.0 -1 ------- null}
- -t 0.02216 -s 2 -d 3 -p cbr -e 210 -c 1 -i 17 -a 1 -x {0.0 4.0 11 ------- null}
h -t 0.02216 -s 2 -d 3 -p cbr -e 210 -c 1 -i 17 -a 1 -x {0.0 4.0 -1 ------- null}
r -t 0.0228 -s 3 -d 4 -p cbr -e 210 -c 2 -i 12 -a 2 -x {1.0 4.1 4 ------- null}
r -t 0.0228847058823529 -s 1 -d 2 -p cbr -e 210 -c 2 -i 18 -a 2 -x {1.0 4.1 6 ------- null}
+ -t 0.0228847058823529 -s 2 -d 3 -p cbr -e 210 -c 2 -i 18 -a 2 -x {1.0 4.1 6 ------- null}
r -t 0.02304 -s 2 -d 3 -p cbr -e 210 -c 2 -i 15 -a 2 -x {1.0 4.1 5 ------- null}
+ -t 0.02304 -s 3 -d 4 -p cbr -e 210 -c 2 -i 15 -a 2 -x {1.0 4.1 5 ------- null}
- -t 0.02304 -s 3 -d 4 -p cbr -e 210 -c 2 -i 15 -a 2 -x {1.0 4.1 5 ------- null}
h -t 0.02304 -s 3 -d 4 -p cbr -e 210 -c 2 -i 15 -a 2 -x {1.0 4.1 -1 ------- null}
+ -t 0.0230588235294118 -s 1 -d 2 -p cbr -e 210 -c 2 -i 21 -a 2 -x {1.0 4.1 7 ------- null}
- -t 0.0230588235294118 -s 1 -d 2 -p cbr -e 210 -c 2 -i 21 -a 2 -x {1.0 4.1 7 ------- null}
h -t 0.0230588235294118 -s 1 -d 2 -p cbr -e 210 -c 2 -i 21 -a 2 -x {1.0 4.1 -1 ------- null}
r -t 0.023080396039604 -s 0 -d 2 -p cbr -e 210 -c 1 -i 19 -a 1 -x {0.0 4.0 12 ------- null}
+ -t 0.023080396039604 -s 2 -d 3 -p cbr -e 210 -c 1 -i 19 -a 1 -x {0.0 4.0 12 ------- null}
- -t 0.02328 -s 2 -d 3 -p cbr -e 210 -c 2 -i 18 -a 2 -x {1.0 4.1 6 ------- null}
h -t 0.02328 -s 2 -d 3 -p cbr -e 210 -c 2 -i 18 -a 2 -x {1.0 4.1 -1 ------- null}
+ -t 0.0232871287128713 -s 0 -d 2 -p cbr -e 210 -c 1 -i 22 -a 1 -x {0.0 4.0 14 ------- null}
- -t 0.0232871287128713 -s 0 -d 2 -p cbr -e 210 -c 1 -i 22 -a 1 -x {0.0 4.0 14 ------- null}
h -t 0.0232871287128713 -s 0 -d 2 -p cbr -e 210 -c 1 -i 22 -a 1 -x {0.0 4.0 -1 ------- null}
r -t 0.02392 -s 3 -d 4 -p cbr -e 210 -c 1 -i 13 -a 1 -x {0.0 4.0 8 ------- null}
r -t 0.02416 -s 2 -d 3 -p cbr -e 210 -c 1 -i 16 -a 1 -x {0.0 4.0 10 ------- null}
+ -t 0.02416 -s 3 -d 4 -p cbr -e 210 -c 1 -i 16 -a 1 -x {0.0 4.0 10 ------- null}
- -t 0.02416 -s 3 -d 4 -p cbr -e 210 -c 1 -i 16 -a 1 -x {0.0 4.0 10 ------- null}
h -t 0.02416 -s 3 -d 4 -p cbr -e 210 -c 1 -i 16 -a 1 -x {0.0 4.0 -1 ------- null}
- -t 0.0244 -s 2 -d 3 -p cbr -e 210 -c 1 -i 19 -a 1 -x {0.0 4.0 12 ------- null}
h -t 0.0244 -s 2 -d 3 -p cbr -e 210 -c 1 -i 19 -a 1 -x {0.0 4.0 -1 ------- null}
r -t 0.0247437623762376 -s 0 -d 2 -p cbr -e 210 -c 1 -i 20 -a 1 -x {0.0 4.0 13 ------- null}
+ -t 0.0247437623762376 -s 2 -d 3 -p cbr -e 210 -c 1 -i 20 -a 1 -x {0.0 4.0 13 ------- null}
+ -t 0.024950495049505 -s 0 -d 2 -p cbr -e 210 -c 1 -i 23 -a 1 -x {0.0 4.0 15 ------- null}
- -t 0.024950495049505 -s 0 -d 2 -p cbr -e 210 -c 1 -i 23 -a 1 -x {0.0 4.0 15 ------- null}
h -t 0.024950495049505 -s 0 -d 2 -p cbr -e 210 -c 1 -i 23 -a 1 -x {0.0 4.0 -1 ------- null}
r -t 0.02504 -s 3 -d 4 -p cbr -e 210 -c 1 -i 14 -a 1 -x {0.0 4.0 9 ------- null}
r -t 0.02528 -s 2 -d 3 -p cbr -e 210 -c 1 -i 17 -a 1 -x {0.0 4.0 11 ------- null}
+ -t 0.02528 -s 3 -d 4 -p cbr -e 210 -c 1 -i 17 -a 1 -x {0.0 4.0 11 ------- null}
- -t 0.02528 -s 3 -d 4 -p cbr -e 210 -c 1 -i 17 -a 1 -x {0.0 4.0 11 ------- null}
h -t 0.02528 -s 3 -d 4 -p cbr -e 210 -c 1 -i 17 -a 1 -x {0.0 4.0 -1 ------- null}
- -t 0.02552 -s 2 -d 3 -p cbr -e 210 -c 1 -i 20 -a 1 -x {0.0 4.0 13 ------- null}
h -t 0.02552 -s 2 -d 3 -p cbr -e 210 -c 1 -i 20 -a 1 -x {0.0 4.0 -1 ------- null}
r -t 0.02616 -s 3 -d 4 -p cbr -e 210 -c 2 -i 15 -a 2 -x {1.0 4.1 5 ------- null}
r -t 0.0261788235294118 -s 1 -d 2 -p cbr -e 210 -c 2 -i 21 -a 2 -x {1.0 4.1 7 ------- null}
+ -t 0.0261788235294118 -s 2 -d 3 -p cbr -e 210 -c 2 -i 21 -a 2 -x {1.0 4.1 7 ------- null}
+ -t 0.0263529411764706 -s 1 -d 2 -p cbr -e 210 -c 2 -i 24 -a 2 -x {1.0 4.1 8 ------- null}
- -t 0.0263529411764706 -s 1 -d 2 -p cbr -e 210 -c 2 -i 24 -a 2 -x {1.0 4.1 8 ------- null}
h -t 0.0263529411764706 -s 1 -d 2 -p cbr -e 210 -c 2 -i 24 -a 2 -x {1.0 4.1 -1 ------- null}
r -t 0.0264 -s 2 -d 3 -p cbr -e 210 -c 2 -i 18 -a 2 -x {1.0 4.1 6 ------- null}
+ -t 0.0264 -s 3 -d 4 -p cbr -e 210 -c 2 -i 18 -a 2 -x {1.0 4.1 6 ------- null}
- -t 0.0264 -s 3 -d 4 -p cbr -e 210 -c 2 -i 18 -a 2 -x {1.0 4.1 6 ------- null}
h -t 0.0264 -s 3 -d 4 -p cbr -e 210 -c 2 -i 18 -a 2 -x {1.0 4.1 -1 ------- null}
r -t 0.0264071287128713 -s 0 -d 2 -p cbr -e 210 -c 1 -i 22 -a 1 -x {0.0 4.0 14 ------- null}
+ -t 0.0264071287128713 -s 2 -d 3 -p cbr -e 210 -c 1 -i 22 -a 1 -x {0.0 4.0 14 ------- null}
+ -t 0.0266138613861386 -s 0 -d 2 -p cbr -e 210 -c 1 -i 25 -a 1 -x {0.0 4.0 16 ------- null}
- -t 0.0266138613861386 -s 0 -d 2 -p cbr -e 210 -c 1 -i 25 -a 1 -x {0.0 4.0 16 ------- null}
h -t 0.0266138613861386 -s 0 -d 2 -p cbr -e 210 -c 1 -i 25 -a 1 -x {0.0 4.0 -1 ------- null}
- -t 0.02664 -s 2 -d 3 -p cbr -e 210 -c 2 -i 21 -a 2 -x {1.0 4.1 7 ------- null}
h -t 0.02664 -s 2 -d 3 -p cbr -e 210 -c 2 -i 21 -a 2 -x {1.0 4.1 -1 ------- null}
r -t 0.02728 -s 3 -d 4 -p cbr -e 210 -c 1 -i 16 -a 1 -x {0.0 4.0 10 ------- null}
r -t 0.02752 -s 2 -d 3 -p cbr -e 210 -c 1 -i 19 -a 1 -x {0.0 4.0 12 ------- null}
+ -t 0.02752 -s 3 -d 4 -p cbr -e 210 -c 1 -i 19 -a 1 -x {0.0 4.0 12 ------- null}
- -t 0.02752 -s 3 -d 4 -p cbr -e 210 -c 1 -i 19 -a 1 -x {0.0 4.0 12 ------- null}
h -t 0.02752 -s 3 -d 4 -p cbr -e 210 -c 1 -i 19 -a 1 -x {0.0 4.0 -1 ------- null}
- -t 0.02776 -s 2 -d 3 -p cbr -e 210 -c 1 -i 22 -a 1 -x {0.0 4.0 14 ------- null}
h -t 0.02776 -s 2 -d 3 -p cbr -e 210 -c 1 -i 22 -a 1 -x {0.0 4.0 -1 ------- null}
r -t 0.028070495049505 -s 0 -d 2 -p cbr -e 210 -c 1 -i 23 -a 1 -x {0.0 4.0 15 ------- null}
+ -t 0.028070495049505 -s 2 -d 3 -p cbr -e 210 -c 1 -i 23 -a 1 -x {0.0 4.0 15 ------- null}
+ -t 0.0282772277227723 -s 0 -d 2 -p cbr -e 210 -c 1 -i 26 -a 1 -x {0.0 4.0 17 ------- null}
- -t 0.0282772277227723 -s 0 -d 2 -p cbr -e 210 -c 1 -i 26 -a 1 -x {0.0 4.0 17 ------- null}
h -t 0.0282772277227723 -s 0 -d 2 -p cbr -e 210 -c 1 -i 26 -a 1 -x {0.0 4.0 -1 ------- null}
r -t 0.0284 -s 3 -d 4 -p cbr -e 210 -c 1 -i 17 -a 1 -x {0.0 4.0 11 ------- null}
r -t 0.02864 -s 2 -d 3 -p cbr -e 210 -c 1 -i 20 -a 1 -x {0.0 4.0 13 ------- null}
+ -t 0.02864 -s 3 -d 4 -p cbr -e 210 -c 1 -i 20 -a 1 -x {0.0 4.0 13 ------- null}
- -t 0.02864 -s 3 -d 4 -p cbr -e 210 -c 1 -i 20 -a 1 -x {0.0 4.0 13 ------- null}
h -t 0.02864 -s 3 -d 4 -p cbr -e 210 -c 1 -i 20 -a 1 -x {0.0 4.0 -1 ------- null}
- -t 0.02888 -s 2 -d 3 -p cbr -e 210 -c 1 -i 23 -a 1 -x {0.0 4.0 15 ------- null}
h -t 0.02888 -s 2 -d 3 -p cbr -e 210 -c 1 -i 23 -a 1 -x {0.0 4.0 -1 ------- null}
r -t 0.0294729411764706 -s 1 -d 2 -p cbr -e 210 -c 2 -i 24 -a 2 -x {1.0 4.1 8 ------- null}
+ -t 0.0294729411764706 -s 2 -d 3 -p cbr -e 210 -c 2 -i 24 -a 2 -x {1.0 4.1 8 ------- null}
r -t 0.02952 -s 3 -d 4 -p cbr -e 210 -c 2 -i 18 -a 2 -x {1.0 4.1 6 ------- null}
+ -t 0.0296470588235294 -s 1 -d 2 -p cbr -e 210 -c 2 -i 27 -a 2 -x {1.0 4.1 9 ------- null}
- -t 0.0296470588235294 -s 1 -d 2 -p cbr -e 210 -c 2 -i 27 -a 2 -x {1.0 4.1 9 ------- null}
h -t 0.0296470588235294 -s 1 -d 2 -p cbr -e 210 -c 2 -i 27 -a 2 -x {1.0 4.1 -1 ------- null}
r -t 0.0297338613861386 -s 0 -d 2 -p cbr -e 210 -c 1 -i 25 -a 1 -x {0.0 4.0 16 ------- null}
+ -t 0.0297338613861386 -s 2 -d 3 -p cbr -e 210 -c 1 -i 25 -a 1 -x {0.0 4.0 16 ------- null}
r -t 0.02976 -s 2 -d 3 -p cbr -e 210 -c 2 -i 21 -a 2 -x {1.0 4.1 7 ------- null}
+ -t 0.02976 -s 3 -d 4 -p cbr -e 210 -c 2 -i 21 -a 2 -x {1.0 4.1 7 ------- null}
- -t 0.02976 -s 3 -d 4 -p cbr -e 210 -c 2 -i 21 -a 2 -x {1.0 4.1 7 ------- null}
h -t 0.02976 -s 3 -d 4 -p cbr -e 210 -c 2 -i 21 -a 2 -x {1.0 4.1 -1 ------- null}
+ -t 0.029940594059406 -s 0 -d 2 -p cbr -e 210 -c 1 -i 28 -a 1 -x {0.0 4.0 18 ------- null}
- -t 0.029940594059406 -s 0 -d 2 -p cbr -e 210 -c 1 -i 28 -a 1 -x {0.0 4.0 18 ------- null}
h -t 0.029940594059406 -s 0 -d 2 -p cbr -e 210 -c 1 -i 28 -a 1 -x {0.0 4.0 -1 ------- null}
- -t 0.03 -s 2 -d 3 -p cbr -e 210 -c 2 -i 24 -a 2 -x {1.0 4.1 8 ------- null}
h -t 0.03 -s 2 -d 3 -p cbr -e 210 -c 2 -i 24 -a 2 -x {1.0 4.1 -1 ------- null}
r -t 0.03064 -s 3 -d 4 -p cbr -e 210 -c 1 -i 19 -a 1 -x {0.0 4.0 12 ------- null}
r -t 0.03088 -s 2 -d 3 -p cbr -e 210 -c 1 -i 22 -a 1 -x {0.0 4.0 14 ------- null}
+ -t 0.03088 -s 3 -d 4 -p cbr -e 210 -c 1 -i 22 -a 1 -x {0.0 4.0 14 ------- null}
- -t 0.03088 -s 3 -d 4 -p cbr -e 210 -c 1 -i 22 -a 1 -x {0.0 4.0 14 ------- null}
h -t 0.03088 -s 3 -d 4 -p cbr -e 210 -c 1 -i 22 -a 1 -x {0.0 4.0 -1 ------- null}
- -t 0.03112 -s 2 -d 3 -p cbr -e 210 -c 1 -i 25 -a 1 -x {0.0 4.0 16 ------- null}
h -t 0.03112 -s 2 -d 3 -p cbr -e 210 -c 1 -i 25 -a 1 -x {0.0 4.0 -1 ------- null}
r -t 0.0313972277227723 -s 0 -d 2 -p cbr -e 210 -c 1 -i 26 -a 1 -x {0.0 4.0 17 ------- null}
+ -t 0.0313972277227723 -s 2 -d 3 -p cbr -e 210 -c 1 -i 26 -a 1 -x {0.0 4.0 17 ------- null}
+ -t 0.0316039603960396 -s 0 -d 2 -p cbr -e 210 -c 1 -i 29 -a 1 -x {0.0 4.0 19 ------- null}
- -t 0.0316039603960396 -s 0 -d 2 -p cbr -e 210 -c 1 -i 29 -a 1 -x {0.0 4.0 19 ------- null}
h -t 0.0316039603960396 -s 0 -d 2 -p cbr -e 210 -c 1 -i 29 -a 1 -x {0.0 4.0 -1 ------- null}
r -t 0.03176 -s 3 -d 4 -p cbr -e 210 -c 1 -i 20 -a 1 -x {0.0 4.0 13 ------- null}
r -t 0.032 -s 2 -d 3 -p cbr -e 210 -c 1 -i 23 -a 1 -x {0.0 4.0 15 ------- null}
+ -t 0.032 -s 3 -d 4 -p cbr -e 210 -c 1 -i 23 -a 1 -x {0.0 4.0 15 ------- null}
- -t 0.032 -s 3 -d 4 -p cbr -e 210 -c 1 -i 23 -a 1 -x {0.0 4.0 15 ------- null}
h -t 0.032 -s 3 -d 4 -p cbr -e 210 -c 1 -i 23 -a 1 -x {0.0 4.0 -1 ------- null}
- -t 0.03224 -s 2 -d 3 -p cbr -e 210 -c 1 -i 26 -a 1 -x {0.0 4.0 17 ------- null}
h -t 0.03224 -s 2 -d 3 -p cbr -e 210 -c 1 -i 26 -a 1 -x {0.0 4.0 -1 ------- null}
r -t 0.0327670588235294 -s 1 -d 2 -p cbr -e 210 -c 2 -i 27 -a 2 -x {1.0 4.1 9 ------- null}
+ -t 0.0327670588235294 -s 2 -d 3 -p cbr -e 210 -c 2 -i 27 -a 2 -x {1.0 4.1 9 ------- null}
r -t 0.03288 -s 3 -d 4 -p cbr -e 210 -c 2 -i 21 -a 2 -x {1.0 4.1 7 ------- null}
+ -t 0.0329411764705882 -s 1 -d 2 -p cbr -e 210 -c 2 -i 30 -a 2 -x {1.0 4.1 10 ------- null}
- -t 0.0329411764705882 -s 1 -d 2 -p cbr -e 210 -c 2 -i 30 -a 2 -x {1.0 4.1 10 ------- null}
h -t 0.0329411764705882 -s 1 -d 2 -p cbr -e 210 -c 2 -i 30 -a 2 -x {1.0 4.1 -1 ------- null}
r -t 0.033060594059406 -s 0 -d 2 -p cbr -e 210 -c 1 -i 28 -a 1 -x {0.0 4.0 18 ------- null}
+ -t 0.033060594059406 -s 2 -d 3 -p cbr -e 210 -c 1 -i 28 -a 1 -x {0.0 4.0 18 ------- null}
r -t 0.03312 -s 2 -d 3 -p cbr -e 210 -c 2 -i 24 -a 2 -x {1.0 4.1 8 ------- null}
+ -t 0.03312 -s 3 -d 4 -p cbr -e 210 -c 2 -i 24 -a 2 -x {1.0 4.1 8 ------- null}
- -t 0.03312 -s 3 -d 4 -p cbr -e 210 -c 2 -i 24 -a 2 -x {1.0 4.1 8 ------- null}
h -t 0.03312 -s 3 -d 4 -p cbr -e 210 -c 2 -i 24 -a 2 -x {1.0 4.1 -1 ------- null}
+ -t 0.0332673267326733 -s 0 -d 2 -p cbr -e 210 -c 1 -i 31 -a 1 -x {0.0 4.0 20 ------- null}
- -t 0.0332673267326733 -s 0 -d 2 -p cbr -e 210 -c 1 -i 31 -a 1 -x {0.0 4.0 20 ------- null}
h -t 0.0332673267326733 -s 0 -d 2 -p cbr -e 210 -c 1 -i 31 -a 1 -x {0.0 4.0 -1 ------- null}
- -t 0.03336 -s 2 -d 3 -p cbr -e 210 -c 2 -i 27 -a 2 -x {1.0 4.1 9 ------- null}
h -t 0.03336 -s 2 -d 3 -p cbr -e 210 -c 2 -i 27 -a 2 -x {1.0 4.1 -1 ------- null}
r -t 0.034 -s 3 -d 4 -p cbr -e 210 -c 1 -i 22 -a 1 -x {0.0 4.0 14 ------- null}
r -t 0.03424 -s 2 -d 3 -p cbr -e 210 -c 1 -i 25 -a 1 -x {0.0 4.0 16 ------- null}
+ -t 0.03424 -s 3 -d 4 -p cbr -e 210 -c 1 -i 25 -a 1 -x {0.0 4.0 16 ------- null}
- -t 0.03424 -s 3 -d 4 -p cbr -e 210 -c 1 -i 25 -a 1 -x {0.0 4.0 16 ------- null}
h -t 0.03424 -s 3 -d 4 -p cbr -e 210 -c 1 -i 25 -a 1 -x {0.0 4.0 -1 ------- null}
- -t 0.03448 -s 2 -d 3 -p cbr -e 210 -c 1 -i 28 -a 1 -x {0.0 4.0 18 ------- null}
h -t 0.03448 -s 2 -d 3 -p cbr -e 210 -c 1 -i 28 -a 1 -x {0.0 4.0 -1 ------- null}
r -t 0.0347239603960396 -s 0 -d 2 -p cbr -e 210 -c 1 -i 29 -a 1 -x {0.0 4.0 19 ------- null}
+ -t 0.0347239603960396 -s 2 -d 3 -p cbr -e 210 -c 1 -i 29 -a 1 -x {0.0 4.0 19 ------- null}
+ -t 0.0349306930693069 -s 0 -d 2 -p cbr -e 210 -c 1 -i 32 -a 1 -x {0.0 4.0 21 ------- null}