V -t * -v 1.0a5 -a 0
A -t * -n 1 -p 0 -o 0x7fffffff -c 30 -a 1
A -t * -h 1 -m 1073741823 -s 0
c -t * -i 1 -n Blue
c -t * -i 2 -n Red
n -t * -a 0 -s 0 -S UP -v circle -c black -i black
n -t * -a 1 -s 1 -S UP -v circle -c black -i black
n -t * -a 2 -s 2 -S UP -v circle -c black -i black
n -t * -a 3 -s 3 -S UP -v circle -c black -i black
l -t * -s 0 -d 2 -S UP -r 2000000 -D 0.01 -c black -o right-down
l -t * -s 1 -d 2 -S UP -r 2000000 -D 0.01 -c black -o right-up
l -t * -s 2 -d 3 -S UP -r 1700000 -D 0.02 -c black -o right
+ -t 0.1 -s 1 -d 2 -p cbr -e 1000 -c 2 -i 0 -a 2 -x {1.0 3.1 0 ------- null}
- -t 0.1 -s 1 -d 2 -p cbr -e 1000 -c 2 -i 0 -a 2 -x {1.0 3.1 0 ------- null}
h -t 0.1 -s 1 -d 2 -p cbr -e 1000 -c 2 -i 0 -a 2 -x {1.0 3.1 -1 ------- null}
+ -t 0.1 -s 1 -d 2 -p cbr -e 24 -c 2 -i 1 -a 2 -x {1.0 3.1 1 ------- null}
- -t 0.104 -s 1 -d 2 -p cbr -e 24 -c 2 -i 1 -a 2 -x {1.0 3.1 1 ------- null}
h -t 0.104 -s 1 -d 2 -p cbr -e 24 -c 2 -i 1 -a 2 -x {1.0 3.1 -1 ------- null}
+ -t 0.108192 -s 1 -d 2 -p cbr -e 1000 -c 2 -i 2 -a 2 -x {1.0 3.1 2 ------- null}
- -t 0.108192 -s 1 -d 2 -p cbr -e 1000 -c 2 -i 2 -a 2 -x {1.0 3.1 2 ------- null}
h -t 0.108192 -s 1 -d 2 -p cbr -e 1000 -c 2 -i 2 -a 2 -x {1.0 3.1 -1 ------- null}
+ -t 0.108192 -s 1 -d 2 -p cbr -e 24 -c 2 -i 3 -a 2 -x {1.0 3.1 3 ------- null}
- -t 0.112192 -s 1 -d 2 -p cbr -e 24 -c 2 -i 3 -a 2 -x {1.0 3.1 3 ------- null}
h -t 0.112192 -s 1 -d 2 -p cbr -e 24 -c 2 -i 3 -a 2 -x {1.0 3.1 -1 ------- null}
r -t 0.114 -s 1 -d 2 -p cbr -e 1000 -c 2 -i 0 -a 2 -x {1.0 3.1 0 ------- null}
+ -t 0.114 -s 2 -d 3 -p cbr -e 1000 -c 2 -i 0 -a 2 -x {1.0 3.1 0 ------- null}
- -t 0.114 -s 2 -d 3 -p cbr -e 1000 -c 2 -i 0 -a 2 -x {1.0 3.1 0 ------- null}
h -t 0.114 -s 2 -d 3 -p cbr -e 1000 -c 2 -i 0 -a 2 -x {1.0 3.1 -1 ------- null}
r -t 0.114096 -s 1 -d 2 -p cbr -e 24 -c 2 -i 1 -a 2 -x {1.0 3.1 1 ------- null}
+ -t 0.114096 -s 2 -d 3 -p cbr -e 24 -c 2 -i 1 -a 2 -x {1.0 3.1 1 ------- null}
+ -t 0.116384 -s 1 -d 2 -p cbr -e 1000 -c 2 -i 4 -a 2 -x {1.0 3.1 4 ------- null}
- -t 0.116384 -s 1 -d 2 -p cbr -e 1000 -c 2 -i 4 -a 2 -x {1.0 3.1 4 ------- null}
h -t 0.116384 -s 1 -d 2 -p cbr -e 1000 -c 2 -i 4 -a 2 -x {1.0 3.1 -1 ------- null}
+ -t 0.116384 -s 1 -d 2 -p cbr -e 24 -c 2 -i 5 -a 2 -x {1.0 3.1 5 ------- null}
- -t 0.118705882352941 -s 2 -d 3 -p cbr -e 24 -c 2 -i 1 -a 2 -x {1.0 3.1 1 ------- null}
h -t 0.118705882352941 -s 2 -d 3 -p cbr -e 24 -c 2 -i 1 -a 2 -x {1.0 3.1 -1 ------- null}
- -t 0.120384 -s 1 -d 2 -p cbr -e 24 -c 2 -i 5 -a 2 -x {1.0 3.1 5 ------- null}
h -t 0.120384 -s 1 -d 2 -p cbr -e 24 -c 2 -i 5 -a 2 -x {1.0 3.1 -1 ------- null}
r -t 0.122192 -s 1 -d 2 -p cbr -e 1000 -c 2 -i 2 -a 2 -x {1.0 3.1 2 ------- null}
+ -t 0.122192 -s 2 -d 3 -p cbr -e 1000 -c 2 -i 2 -a 2 -x {1.0 3.1 2 ------- null}
- -t 0.122192 -s 2 -d 3 -p cbr -e 1000 -c 2 -i 2 -a 2 -x {1.0 3.1 2 ------- null}
h -t 0.122192 -s 2 -d 3 -p cbr -e 1000 -c 2 -i 2 -a 2 -x {1.0 3.1 -1 ------- null}
r -t 0.122288 -s 1 -d 2 -p cbr -e 24 -c 2 -i 3 -a 2 -x {1.0 3.1 3 ------- null}
+ -t 0.122288 -s 2 -d 3 -p cbr -e 24 -c 2 -i 3 -a 2 -x {1.0 3.1 3 ------- null}
+ -t 0.124576 -s 1 -d 2 -p cbr -e 1000 -c 2 -i 6 -a 2 -x {1.0 3.1 6 ------- null}
- -t 0.124576 -s 1 -d 2 -p cbr -e 1000 -c 2 -i 6 -a 2 -x {1.0 3.1 6 ------- null}
h -t 0.124576 -s 1 -d 2 -p cbr -e 1000 -c 2 -i 6 -a 2 -x {1.0 3.1 -1 ------- null}
+ -t 0.124576 -s 1 -d 2 -p cbr -e 24 -c 2 -i 7 -a 2 -x {1.0 3.1 7 ------- null}
- -t 0.126897882352941 -s 2 -d 3 -p cbr -e 24 -c 2 -i 3 -a 2 -x {1.0 3.1 3 ------- null}
h -t 0.126897882352941 -s 2 -d 3 -p cbr -e 24 -c 2 -i 3 -a 2 -x {1.0 3.1 -1 ------- null}
- -t 0.128576 -s 1 -d 2 -p cbr -e 24 -c 2 -i 7 -a 2 -x {1.0 3.1 7 ------- null}
h -t 0.128576 -s 1 -d 2 -p cbr -e 24 -c 2 -i 7 -a 2 -x {1.0 3.1 -1 ------- null}
r -t 0.130384 -s 1 -d 2 -p cbr -e 1000 -c 2 -i 4 -a 2 -x {1.0 3.1 4 ------- null}
+ -t 0.130384 -s 2 -d 3 -p cbr -e 1000 -c 2 -i 4 -a 2 -x {1.0 3.1 4 ------- null}
- -t 0.130384 -s 2 -d 3 -p cbr -e 1000 -c 2 -i 4 -a 2 -x {1.0 3.1 4 ------- null}
h -t 0.130384 -s 2 -d 3 -p cbr -e 1000 -c 2 -i 4 -a 2 -x {1.0 3.1 -1 ------- null}
r -t 0.13048 -s 1 -d 2 -p cbr -e 24 -c 2 -i 5 -a 2 -x {1.0 3.1 5 ------- null}
+ -t 0.13048 -s 2 -d 3 -p cbr -e 24 -c 2 -i 5 -a 2 -x {1.0 3.1 5 ------- null}
+ -t 0.132768 -s 1 -d 2 -p cbr -e 1000 -c 2 -i 8 -a 2 -x {1.0 3.1 8 ------- null}
- -t 0.132768 -s 1 -d 2 -p cbr -e 1000 -c 2 -i 8 -a 2 -x {1.0 3.1 8 ------- null}
h -t 0.132768 -s 1 -d 2 -p cbr -e 1000 -c 2 -i 8 -a 2 -x {1.0 3.1 -1 ------- null}
+ -t 0.132768 -s 1 -d 2 -p cbr -e 24 -c 2 -i 9 -a 2 -x {1.0 3.1 9 ------- null}
- -t 0.135089882352941 -s 2 -d 3 -p cbr -e 24 -c 2 -i 5 -a 2 -x {1.0 3.1 5 ------- null}
h -t 0.135089882352941 -s 2 -d 3 -p cbr -e 24 -c 2 -i 5 -a 2 -x {1.0 3.1 -1 ------- null}
- -t 0.136768 -s 1 -d 2 -p cbr -e 24 -c 2 -i 9 -a 2 -x {1.0 3.1 9 ------- null}
h -t 0.136768 -s 1 -d 2 -p cbr -e 24 -c 2 -i 9 -a 2 -x {1.0 3.1 -1 ------- null}
r -t 0.138576 -s 1 -d 2 -p cbr -e 1000 -c 2 -i 6 -a 2 -x {1.0 3.1 6 ------- null}
+ -t 0.138576 -s 2 -d 3 -p cbr -e 1000 -c 2 -i 6 -a 2 -x {1.0 3.1 6 ------- null}
- -t 0.138576 -s 2 -d 3 -p cbr -e 1000 -c 2 -i 6 -a 2 -x {1.0 3.1 6 ------- null}
h -t 0.138576 -s 2 -d 3 -p cbr -e 1000 -c 2 -i 6 -a 2 -x {1.0 3.1 -1 ------- null}
r -t 0.138672 -s 1 -d 2 -p cbr -e 24 -c 2 -i 7 -a 2 -x {1.0 3.1 7 ------- null}
+ -t 0.138672 -s 2 -d 3 -p cbr -e 24 -c 2 -i 7 -a 2 -x {1.0 3.1 7 ------- null}
r -t 0.138705882352941 -s 2 -d 3 -p cbr -e 1000 -c 2 -i 0 -a 2 -x {1.0 3.1 0 ------- null}
r -t 0.138818823529412 -s 2 -d 3 -p cbr -e 24 -c 2 -i 1 -a 2 -x {1.0 3.1 1 ------- null}
+ -t 0.14096 -s 1 -d 2 -p cbr -e 1000 -c 2 -i 10 -a 2 -x {1.0 3.1 10 ------- null}
- -t 0.14096 -s 1 -d 2 -p cbr -e 1000 -c 2 -i 10 -a 2 -x {1.0 3.1 10 ------- null}
h -t 0.14096 -s 1 -d 2 -p cbr -e 1000 -c 2 -i 10 -a 2 -x {1.0 3.1 -1 ------- null}
+ -t 0.14096 -s 1 -d 2 -p cbr -e 24 -c 2 -i 11 -a 2 -x {1.0 3.1 11 ------- null}
- -t 0.143281882352941 -s 2 -d 3 -p cbr -e 24 -c 2 -i 7 -a 2 -x {1.0 3.1 7 ------- null}
h -t 0.143281882352941 -s 2 -d 3 -p cbr -e 24 -c 2 -i 7 -a 2 -x {1.0 3.1 -1 ------- null}
- -t 0.14496 -s 1 -d 2 -p cbr -e 24 -c 2 -i 11 -a 2 -x {1.0 3.1 11 ------- null}
h -t 0.14496 -s 1 -d 2 -p cbr -e 24 -c 2 -i 11 -a 2 -x {1.0 3.1 -1 ------- null}
r -t 0.146768 -s 1 -d 2 -p cbr -e 1000 -c 2 -i 8 -a 2 -x {1.0 3.1 8 ------- null}
+ -t 0.146768 -s 2 -d 3 -p cbr -e 1000 -c 2 -i 8 -a 2 -x {1.0 3.1 8 ------- null}
- -t 0.146768 -s 2 -d 3 -p cbr -e 1000 -c 2 -i 8 -a 2 -x {1.0 3.1 8 ------- null}
h -t 0.146768 -s 2 -d 3 -p cbr -e 1000 -c 2 -i 8 -a 2 -x {1.0 3.1 -1 ------- null}
r -t 0.146864 -s 1 -d 2 -p cbr -e 24 -c 2 -i 9 -a 2 -x {1.0 3.1 9 ------- null}
+ -t 0.146864 -s 2 -d 3 -p cbr -e 24 -c 2 -i 9 -a 2 -x {1.0 3.1 9 ------- null}
r -t 0.146897882352941 -s 2 -d 3 -p cbr -e 1000 -c 2 -i 2 -a 2 -x {1.0 3.1 2 ------- null}
r -t 0.147010823529412 -s 2 -d 3 -p cbr -e 24 -c 2 -i 3 -a 2 -x {1.0 3.1 3 ------- null}
+ -t 0.149152 -s 1 -d 2 -p cbr -e 1000 -c 2 -i 12 -a 2 -x {1.0 3.1 12 ------- null}
- -t 0.149152 -s 1 -d 2 -p cbr -e 1000 -c 2 -i 12 -a 2 -x {1.0 3.1 12 ------- null}
h -t 0.149152 -s 1 -d 2 -p cbr -e 1000 -c 2 -i 12 -a 2 -x {1.0 3.1 -1 ------- null}
+ -t 0.149152 -s 1 -d 2 -p cbr -e 24 -c 2 -i 13 -a 2 -x {1.0 3.1 13 ------- null}
- -t 0.151473882352941 -s 2 -d 3 -p cbr -e 24 -c 2 -i 9 -a 2 -x {1.0 3.1 9 ------- null}
h -t 0.151473882352941 -s 2 -d 3 -p cbr -e 24 -c 2 -i 9 -a 2 -x {1.0 3.1 -1 ------- null}
- -t 0.153152 -s 1 -d 2 -p cbr -e 24 -c 2 -i 13 -a 2 -x {1.0 3.1 13 ------- null}
h -t 0.153152 -s 1 -d 2 -p cbr -e 24 -c 2 -i 13 -a 2 -x {1.0 3.1 -1 ------- null}
r -t 0.15496 -s 1 -d 2 -p cbr -e 1000 -c 2 -i 10 -a 2 -x {1.0 3.1 10 ------- null}
+ -t 0.15496 -s 2 -d 3 -p cbr -e 1000 -c 2 -i 10 -a 2 -x {1.0 3.1 10 ------- null}
- -t 0.15496 -s 2 -d 3 -p cbr -e 1000 -c 2 -i 10 -a 2 -x {1.0 3.1 10 ------- null}
h -t 0.15496 -s 2 -d 3 -p cbr -e 1000 -c 2 -i 10 -a 2 -x {1.0 3.1 -1 ------- null}
r -t 0.155056 -s 1 -d 2 -p cbr -e 24 -c 2 -i 11 -a 2 -x {1.0 3.1 11 ------- null}
+ -t 0.155056 -s 2 -d 3 -p cbr -e 24 -c 2 -i 11 -a 2 -x {1.0 3.1 11 ------- null}
r -t 0.155089882352941 -s 2 -d 3 -p cbr -e 1000 -c 2 -i 4 -a 2 -x {1.0 3.1 4 ------- null}
r -t 0.155202823529412 -s 2 -d 3 -p cbr -e 24 -c 2 -i 5 -a 2 -x {1.0 3.1 5 ------- null}
+ -t 0.157344 -s 1 -d 2 -p cbr -e 1000 -c 2 -i 14 -a 2 -x {1.0 3.1 14 ------- null}
- -t 0.157344 -s 1 -d 2 -p cbr -e 1000 -c 2 -i 14 -a 2 -x {1.0 3.1 14 ------- null}
h -t 0.157344 -s 1 -d 2 -p cbr -e 1000 -c 2 -i 14 -a 2 -x {1.0 3.1 -1 ------- null}
+ -t 0.157344 -s 1 -d 2 -p cbr -e 24 -c 2 -i 15 -a 2 -x {1.0 3.1 15 ------- null}
- -t 0.159665882352941 -s 2 -d 3 -p cbr -e 24 -c 2 -i 11 -a 2 -x {1.0 3.1 11 ------- null}
h -t 0.159665882352941 -s 2 -d 3 -p cbr -e 24 -c 2 -i 11 -a 2 -x {1.0 3.1 -1 ------- null}
- -t 0.161344 -s 1 -d 2 -p cbr -e 24 -c 2 -i 15 -a 2 -x {1.0 3.1 15 ------- null}
h -t 0.161344 -s 1 -d 2 -p cbr -e 24 -c 2 -i 15 -a 2 -x {1.0 3.1 -1 ------- null}
r -t 0.163152 -s 1 -d 2 -p cbr -e 1000 -c 2 -i 12 -a 2 -x {1.0 3.1 12 ------- null}
+ -t 0.163152 -s 2 -d 3 -p cbr -e 1000 -c 2 -i 12 -a 2 -x {1.0 3.1 12 ------- null}
- -t 0.163152 -s 2 -d 3 -p cbr -e 1000 -c 2 -i 12 -a 2 -x {1.0 3.1 12 ------- null}
h -t 0.163152 -s 2 -d 3 -p cbr -e 1000 -c 2 -i 12 -a 2 -x {1.0 3.1 -1 ------- null}
r -t 0.163248 -s 1 -d 2 -p cbr -e 24 -c 2 -i 13 -a 2 -x {1.0 3.1 13 ------- null}
+ -t 0.163248 -s 2 -d 3 -p cbr -e 24 -c 2 -i 13 -a 2 -x {1.0 3.1 13 ------- null}
r -t 0.163281882352941 -s 2 -d 3 -p cbr -e 1000 -c 2 -i 6 -a 2 -x {1.0 3.1 6 ------- null}
r -t 0.163394823529412 -s 2 -d 3 -p cbr -e 24 -c 2 -i 7 -a 2 -x {1.0 3.1 7 ------- null}
+ -t 0.165536 -s 1 -d 2 -p cbr -e 1000 -c 2 -i 16 -a 2 -x {1.0 3.1 16 ------- null}
- -t 0.165536 -s 1 -d 2 -p cbr -e 1000 -c 2 -i 16 -a 2 -x {1.0 3.1 16 ------- null}
h -t 0.165536 -s 1 -d 2 -p cbr -e 1000 -c 2 -i 16 -a 2 -x {1.0 3.1 -1 ------- null}
+ -t 0.165536 -s 1 -d 2 -p cbr -e 24 -c 2 -i 17 -a 2 -x {1.0 3.1 17 ------- null}
- -t 0.167857882352941 -s 2 -d 3 -p cbr -e 24 -c 2 -i 13 -a 2 -x {1.0 3.1 13 ------- null}
h -t 0.167857882352941 -s 2 -d 3 -p cbr -e 24 -c 2 -i 13 -a 2 -x {1.0 3.1 -1 ------- null}
- -t 0.169536 -s 1 -d 2 -p cbr -e 24 -c 2 -i 17 -a 2 -x {1.0 3.1 17 ------- null}
h -t 0.169536 -s 1 -d 2 -p cbr -e 24 -c 2 -i 17 -a 2 -x {1.0 3.1 -1 ------- null}
r -t 0.171344 -s 1 -d 2 -p cbr -e 1000 -c 2 -i 14 -a 2 -x {1.0 3.1 14 ------- null}
+ -t 0.171344 -s 2 -d 3 -p cbr -e 1000 -c 2 -i 14 -a 2 -x {1.0 3.1 14 ------- null}
- -t 0.171344 -s 2 -d 3 -p cbr -e 1000 -c 2 -i 14 -a 2 -x {1.0 3.1 14 ------- null}
h -t 0.171344 -s 2 -d 3 -p cbr -e 1000 -c 2 -i 14 -a 2 -x {1.0 3.1 -1 ------- null}
r -t 0.17144 -s 1 -d 2 -p cbr -e 24 -c 2 -i 15 -a 2 -x {1.0 3.1 15 ------- null}
+ -t 0.17144 -s 2 -d 3 -p cbr -e 24 -c 2 -i 15 -a 2 -x {1.0 3.1 15 ------- null}
r -t 0.171473882352941 -s 2 -d 3 -p cbr -e 1000 -c 2 -i 8 -a 2 -x {1.0 3.1 8 ------- null}
r -t 0.171586823529412 -s 2 -d 3 -p cbr -e 24 -c 2 -i 9 -a 2 -x {1.0 3.1 9 ------- null}
+ -t 0.173728 -s 1 -d 2 -p cbr -e 1000 -c 2 -i 18 -a 2 -x {1.0 3.1 18 ------- null}
- -t 0.173728 -s 1 -d 2 -p cbr -e 1000 -c 2 -i 18 -a 2 -x {1.0 3.1 18 ------- null}
h -t 0.173728 -s 1 -d 2 -p cbr -e 1000 -c 2 -i 18 -a 2 -x {1.0 3.1 -1 ------- null}
+ -t 0.173728 -s 1 -d 2 -p cbr -e 24 -c 2 -i 19 -a 2 -x {1.0 3.1 19 ------- null}
- -t 0.176049882352941 -s 2 -d 3 -p cbr -e 24 -c 2 -i 15 -a 2 -x {1.0 3.1 15 ------- null}
h -t 0.176049882352941 -s 2 -d 3 -p cbr -e 24 -c 2 -i 15 -a 2 -x {1.0 3.1 -1 ------- null}
- -t 0.177728 -s 1 -d 2 -p cbr -e 24 -c 2 -i 19 -a 2 -x {1.0 3.1 19 ------- null}
h -t 0.177728 -s 1 -d 2 -p cbr -e 24 -c 2 -i 19 -a 2 -x {1.0 3.1 -1 ------- null}
r -t 0.179536 -s 1 -d 2 -p cbr -e 1000 -c 2 -i 16 -a 2 -x {1.0 3.1 16 ------- null}
+ -t 0.179536 -s 2 -d 3 -p cbr -e 1000 -c 2 -i 16 -a 2 -x {1.0 3.1 16 ------- null}
- -t 0.179536 -s 2 -d 3 -p cbr -e 1000 -c 2 -i 16 -a 2 -x {1.0 3.1 16 ------- null}
h -t 0.179536 -s 2 -d 3 -p cbr -e 1000 -c 2 -i 16 -a 2 -x {1.0 3.1 -1 ------- null}
r -t 0.179632 -s 1 -d 2 -p cbr -e 24 -c 2 -i 17 -a 2 -x {1.0 3.1 17 ------- null}
+ -t 0.179632 -s 2 -d 3 -p cbr -e 24 -c 2 -i 17 -a 2 -x {1.0 3.1 17 ------- null}
r -t 0.179665882352941 -s 2 -d 3 -p cbr -e 1000 -c 2 -i 10 -a 2 -x {1.0 3.1 10 ------- null}
r -t 0.179778823529412 -s 2 -d 3 -p cbr -e 24 -c 2 -i 11 -a 2 -x {1.0 3.1 11 ------- null}
+ -t 0.18192 -s 1 -d 2 -p cbr -e 1000 -c 2 -i 20 -a 2 -x {1.0 3.1 20 ------- null}
- -t 0.18192 -s 1 -d 2 -p cbr -e 1000 -c 2 -i 20 -a 2 -x {1.0 3.1 20 ------- null}
h -t 0.18192 -s 1 -d 2 -p cbr -e 1000 -c 2 -i 20 -a 2 -x {1.0 3.1 -1 ------- null}
+ -t 0.18192 -s 1 -d 2 -p cbr -e 24 -c 2 -i 21 -a 2 -x {1.0 3.1 21 ------- null}
- -t 0.184241882352941 -s 2 -d 3 -p cbr -e 24 -c 2 -i 17 -a 2 -x {1.0 3.1 17 ------- null}
h -t 0.184241882352941 -s 2 -d 3 -p cbr -e 24 -c 2 -i 17 -a 2 -x {1.0 3.1 -1 ------- null}
- -t 0.18592 -s 1 -d 2 -p cbr -e 24 -c 2 -i 21 -a 2 -x {1.0 3.1 21 ------- null}
h -t 0.18592 -s 1 -d 2 -p cbr -e 24 -c 2 -i 21 -a 2 -x {1.0 3.1 -1 ------- null}
r -t 0.187728 -s 1 -d 2 -p cbr -e 1000 -c 2 -i 18 -a 2 -x {1.0 3.1 18 ------- null}
+ -t 0.187728 -s 2 -d 3 -p cbr -e 1000 -c 2 -i 18 -a 2 -x {1.0 3.1 18 ------- null}
- -t 0.187728 -s 2 -d 3 -p cbr -e 1000 -c 2 -i 18 -a 2 -x {1.0 3.1 18 ------- null}
h -t 0.187728 -s 2 -d 3 -p cbr -e 1000 -c 2 -i 18 -a 2 -x {1.0 3.1 -1 ------- null}
r -t 0.187824 -s 1 -d 2 -p cbr -e 24 -c 2 -i 19 -a 2 -x {1.0 3.1 19 ------- null}
+ -t 0.187824 -s 2 -d 3 -p cbr -e 24 -c 2 -i 19 -a 2 -x {1.0 3.1 19 ------- null}
r -t 0.187857882352941 -s 2 -d 3 -p cbr -e 1000 -c 2 -i 12 -a 2 -x {1.0 3.1 12 ------- null}
r -t 0.187970823529412 -s 2 -d 3 -p cbr -e 24 -c 2 -i 13 -a 2 -x {1.0 3.1 13 ------- null}
+ -t 0.190112 -s 1 -d 2 -p cbr -e 1000 -c 2 -i 22 -a 2 -x {1.0 3.1 22 ------- null}
- -t 0.190112 -s 1 -d 2 -p cbr -e 1000 -c 2 -i 22 -a 2 -x {1.0 3.1 22 ------- null}
h -t 0.190112 -s 1 -d 2 -p cbr -e 1000 -c 2 -i 22 -a 2 -x {1.0 3.1 -1 ------- null}
+ -t 0.190112 -s 1 -d 2 -p cbr -e 24 -c 2 -i 23 -a 2 -x {1.0 3.1 23 ------- null}
- -t 0.192433882352941 -s 2 -d 3 -p cbr -e 24 -c 2 -i 19 -a 2 -x {1.0 3.1 19 ------- null}
h -t 0.192433882352941 -s 2 -d 3 -p cbr -e 24 -c 2 -i 19 -a 2 -x {1.0 3.1 -1 ------- null}
- -t 0.194112 -s 1 -d 2 -p cbr -e 24 -c 2 -i 23 -a 2 -x {1.0 3.1 23 ------- null}
h -t 0.194112 -s 1 -d 2 -p cbr -e 24 -c 2 -i 23 -a 2 -x {1.0 3.1 -1 ------- null}
r -t 0.19592 -s 1 -d 2 -p cbr -e 1000 -c 2 -i 20 -a 2 -x {1.0 3.1 20 ------- null}
+ -t 0.19592 -s 2 -d 3 -p cbr -e 1000 -c 2 -i 20 -a 2 -x {1.0 3.1 20 ------- null}
- -t 0.19592 -s 2 -d 3 -p cbr -e 1000 -c 2 -i 20 -a 2 -x {1.0 3.1 20 ------- null}
h -t 0.19592 -s 2 -d 3 -p cbr -e 1000 -c 2 -i 20 -a 2 -x {1.0 3.1 -1 ------- null}
r -t 0.196016 -s 1 -d 2 -p cbr -e 24 -c 2 -i 21 -a 2 -x {1.0 3.1 21 ------- null}
+ -t 0.196016 -s 2 -d 3 -p cbr -e 24 -c 2 -i 21 -a 2 -x {1.0 3.1 21 ------- null}
r -t 0.196049882352941 -s 2 -d 3 -p cbr -e 1000 -c 2 -i 14 -a 2 -x {1.0 3.1 14 ------- null}
r -t 0.196162823529412 -s 2 -d 3 -p cbr -e 24 -c 2 -i 15 -a 2 -x {1.0 3.1 15 ------- null}
+ -t 0.198304 -s 1 -d 2 -p cbr -e 1000 -c 2 -i 24 -a 2 -x {1.0 3.1 24 ------- null}
- -t 0.198304 -s 1 -d 2 -p cbr -e 1000 -c 2 -i 24 -a 2 -x {1.0 3.1 24 ------- null}
h -t 0.198304 -s 1 -d 2 -p cbr -e 1000 -c 2 -i 24 -a 2 -x {1.0 3.1 -1 ------- null}
+ -t 0.198304 -s 1 -d 2 -p cbr -e 24 -c 2 -i 25 -a 2 -x {1.0 3.1 25 ------- null}
- -t 0.200625882352941 -s 2 -d 3 -p cbr -e 24 -c 2 -i 21 -a 2 -x {1.0 3.1 21 ------- null}
h -t 0.200625882352941 -s 2 -d 3 -p cbr -e 24 -c 2 -i 21 -a 2 -x {1.0 3.1 -1 ------- null}
- -t 0.202304 -s 1 -d 2 -p cbr -e 24 -c 2 -i 25 -a 2 -x {1.0 3.1 25 ------- null}
h -t 0.202304 -s 1 -d 2 -p cbr -e 24 -c 2 -i 25 -a 2 -x {1.0 3.1 -1 ------- null}
r -t 0.204112 -s 1 -d 2 -p cbr -e 1000 -c 2 -i 22 -a 2 -x {1.0 3.1 22 ------- null}
+ -t 0.204112 -s 2 -d 3 -p cbr -e 1000 -c 2 -i 22 -a 2 -x {1.0 3.1 22 ------- null}
- -t 0.204112 -s 2 -d 3 -p cbr -e 1000 -c 2 -i 22 -a 2 -x {1.0 3.1 22 ------- null}
h -t 0.204112 -s 2 -d 3 -p cbr -e 1000 -c 2 -i 22 -a 2 -x {1.0 3.1 -1 ------- null}
r -t 0.204208 -s 1 -d 2 -p cbr -e 24 -c 2 -i 23 -a 2 -x {1.0 3.1 23 ------- null}
+ -t 0.204208 -s 2 -d 3 -p cbr -e 24 -c 2 -i 23 -a 2 -x {1.0 3.1 23 ------- null}
r -t 0.204241882352941 -s 2 -d 3 -p cbr -e 1000 -c 2 -i 16 -a 2 -x {1.0 3.1 16 ------- null}
r -t 0.204354823529412 -s 2 -d 3 -p cbr -e 24 -c 2 -i 17 -a 2 -x {1.0 3.1 17 ------- null}
+ -t 0.206496 -s 1 -d 2 -p cbr -e 1000 -c 2 -i 26 -a 2 -x {1.0 3.1 26 ------- null}
- -t 0.206496 -s 1 -d 2 -p cbr -e 1000 -c 2 -i 26 -a 2 -x {1.0 3.1 26 ------- null}
h -t 0.206496 -s 1 -d 2 -p cbr -e 1000 -c 2 -i 26 -a 2 -x {1.0 3.1 -1 ------- null}
+ -t 0.206496 -s 1 -d 2 -p cbr -e 24 -c 2 -i 27 -a 2 -x {1.0 3.1 27 ------- null}
- -t 0.208817882352941 -s 2 -d 3 -p cbr -e 24 -c 2 -i 23 -a 2 -x {1.0 3.1 23 ------- null}
h -t 0.208817882352941 -s 2 -d 3 -p cbr -e 24 -c 2 -i 23 -a 2 -x {1.0 3.1 -1 ------- null}
- -t 0.210496 -s 1 -d 2 -p cbr -e 24 -c 2 -i 27 -a 2 -x {1.0 3.1 27 ------- null}
h -t 0.210496 -s 1 -d 2 -p cbr -e 24 -c 2 -i 27 -a 2 -x {1.0 3.1 -1 ------- null}
r -t 0.212304 -s 1 -d 2 -p cbr -e 1000 -c 2 -i 24 -a 2 -x {1.0 3.1 24 ------- null}
+ -t 0.212304 -s 2 -d 3 -p cbr -e 1000 -c 2 -i 24 -a 2 -x {1.0 3.1 24 ------- null}
- -t 0.212304 -s 2 -d 3 -p cbr -e 1000 -c 2 -i 24 -a 2 -x {1.0 3.1 24 ------- null}
h -t 0.212304 -s 2 -d 3 -p cbr -e 1000 -c 2 -i 24 -a 2 -x {1.0 3.1 -1 ------- null}
r -t 0.2124 -s 1 -d 2 -p cbr -e 24 -c 2 -i 25 -a 2 -x {1.0 3.1 25 ------- null}
+ -t 0.2124 -s 2 -d 3 -p cbr -e 24 -c 2 -i 25 -a 2 -x {1.0 3.1 25 ------- null}
r -t 0.212433882352941 -s 2 -d 3 -p cbr -e 1000 -c 2 -i 18 -a 2 -x {1.0 3.1 18 ------- null}
r -t 0.212546823529412 -s 2 -d 3 -p cbr -e 24 -c 2 -i 19 -a 2 -x {1.0 3.1 19 ------- null}
+ -t 0.214688 -s 1 -d 2 -p cbr -e 1000 -c 2 -i 28 -a 2 -x {1.0 3.1 28 ------- null}
- -t 0.214688 -s 1 -d 2 -p cbr -e 1000 -c 2 -i 28 -a 2 -x {1.0 3.1 28 ------- null}
h -t 0.214688 -s 1 -d 2 -p cbr -e 1000 -c 2 -i 28 -a 2 -x {1.0 3.1 -1 ------- null}
+ -t 0.214688 -s 1 -d 2 -p cbr -e 24 -c 2 -i 29 -a 2 -x {1.0 3.1 29 ------- null}
- -t 0.217009882352941 -s 2 -d 3 -p cbr -e 24 -c 2 -i 25 -a 2 -x {1.0 3.1 25 ------- null}
h -t 0.217009882352941 -s 2 -d 3 -p cbr -e 24 -c 2 -i 25 -a 2 -x {1.0 3.1 -1 ------- null}
- -t 0.218688 -s 1 -d 2 -p cbr -e 24 -c 2 -i 29 -a 2 -x {1.0 3.1 29 ------- null}
h -t 0.218688 -s 1 -d 2 -p cbr -e 24 -c 2 -i 29 -a 2 -x {1.0 3.1 -1 ------- null}
r -t 0.220496 -s 1 -d 2 -p cbr -e 1000 -c 2 -i 26 -a 2 -x {1.0 3.1 26 ------- null}
+ -t 0.220496 -s 2 -d 3 -p cbr -e 1000 -c 2 -i 26 -a 2 -x {1.0 3.1 26 ------- null}
- -t 0.220496 -s 2 -d 3 -p cbr -e 1000 -c 2 -i 26 -a 2 -x {1.0 3.1 26 ------- null}
h -t 0.220496 -s 2 -d 3 -p cbr -e 1000 -c 2 -i 26 -a 2 -x {1.0 3.1 -1 ------- null}
r -t 0.220592 -s 1 -d 2 -p cbr -e 24 -c 2 -i 27 -a 2 -x {1.0 3.1 27 ------- null}
+ -t 0.220592 -s 2 -d 3 -p cbr -e 24 -c 2 -i 27 -a 2 -x {1.0 3.1 27 ------- null}
r -t 0.220625882352941 -s 2 -d 3 -p cbr -e 1000 -c 2 -i 20 -a 2 -x {1.0 3.1 20 ------- null}
r -t 0.220738823529412 -s 2 -d 3 -p cbr -e 24 -c 2 -i 21 -a 2 -x {1.0 3.1 21 ------- null}
+ -t 0.22288 -s 1 -d 2 -p cbr -e 1000 -c 2 -i 30 -a 2 -x {1.0 3.1 30 ------- null}
- -t 0.22288 -s 1 -d 2 -p cbr -e 1000 -c 2 -i 30 -a 2 -x {1.0 3.1 30 ------- null}
h -t 0.22288 -s 1 -d 2 -p cbr -e 1000 -c 2 -i 30 -a 2 -x {1.0 3.1 -1 ------- null}
+ -t 0.22288 -s 1 -d 2 -p cbr -e 24 -c 2 -i 31 -a 2 -x {1.0 3.1 31 ------- null}
- -t 0.225201882352941 -s 2 -d 3 -p cbr -e 24 -c 2 -i 27 -a 2 -x {1.0 3.1 27 ------- null}
h -t 0.225201882352941 -s 2 -d 3 -p cbr -e 24 -c 2 -i 27 -a 2 -x {1.0 3.1 -1 ------- null}
- -t 0.22688 -s 1 -d 2 -p cbr -e 24 -c 2 -i 31 -a 2 -x {1.0 3.1 31 ------- null}
h -t 0.22688 -s 1 -d 2 -p cbr -e 24 -c 2 -i 31 -a 2 -x {1.0 3.1 -1 ------- null}
r -t 0.228688 -s 1 -d 2 -p cbr -e 1000 -c 2 -i 28 -a 2 -x {1.0 3.1 28 ------- null}
+ -t 0.228688 -s 2 -d 3 -p cbr -e 1000 -c 2 -i 28 -a 2 -x {1.0 3.1 28 ------- null}
- -t 0.228688 -s 2 -d 3 -p cbr -e 1000 -c 2 -i 28 -a 2 -x {1.0 3.1 28 ------- null}
h -t 0.228688 -s 2 -d 3 -p cbr -e 1000 -c 2 -i 28 -a 2 -x {1.0 3.1 -1 ------- null}
r -t 0.228784 -s 1 -d 2 -p cbr -e 24 -c 2 -i 29 -a 2 -x {1.0 3.1 29 ------- null}
+ -t 0.228784 -s 2 -d 3 -p cbr -e 24 -c 2 -i 29 -a 2 -x {1.0 3.1 29 ------- null}
r -t 0.228817882352941 -s 2 -d 3 -p cbr -e 1000 -c 2 -i 22 -a 2 -x {1.0 3.1 22 ------- null}
r -t 0.228930823529412 -s 2 -d 3 -p cbr -e 24 -c 2 -i 23 -a 2 -x {1.0 3.1 23 ------- null}
+ -t 0.231072 -s 1 -d 2 -p cbr -e 1000 -c 2 -i 32 -a 2 -x {1.0 3.1 32 ------- null}
- -t 0.231072 -s 1 -d 2 -p cbr -e 1000 -c 2 -i 32 -a 2 -x {1.0 3.1 32 ------- null}
h -t 0.231072 -s 1 -d 2 -p cbr -e 1000 -c 2 -i 32 -a 2 -x {1.0 3.1 -1 ------- null}
+ -t 0.231072 -s 1 -d 2 -p cbr -e 24 -c 2 -i 33 -a 2 -x {1.0 3.1 33 ------- null}
- -t 0.233393882352941 -s 2 -d 3 -p cbr -e 24 -c 2 -i 29 -a 2 -x {1.0 3.1 29 ------- null}
h -t 0.233393882352941 -s 2 -d 3 -p cbr -e 24 -c 2 -i 29 -a 2 -x {1.0 3.1 -1 ------- null}
- -t 0.235072 -s 1 -d 2 -p cbr -e 24 -c 2 -i 33 -a 2 -x {1.0 3.1 33 ------- null}
h -t 0.235072 -s 1 -d 2 -p cbr -e 24 -c 2 -i 33 -a 2 -x {1.0 3.1 -1 ------- null}
r -t 0.23688 -s 1 -d 2 -p cbr -e 1000 -c 2 -i 30 -a 2 -x {1.0 3.1 30 ------- null}
+ -t 0.23688 -s 2 -d 3 -p cbr -e 1000 -c 2 -i 30 -a 2 -x {1.0 3.1 30 ------- null}
- -t 0.23688 -s 2 -d 3 -p cbr -e 1000 -c 2 -i 30 -a 2 -x {1.0 3.1 30 ------- null}
h -t 0.23688 -s 2 -d 3 -p cbr -e 1000 -c 2 -i 30 -a 2 -x {1.0 3.1 -1 ------- null}
r -t 0.236976 -s 1 -d 2 -p cbr -e 24 -c 2 -i 31 -a 2 -x {1.0 3.1 31 ------- null}
+ -t 0.236976 -s 2 -d 3 -p cbr -e 24 -c 2 -i 31 -a 2 -x {1.0 3.1 31 ------- null}
r -t 0.237009882352941 -s 2 -d 3 -p cbr -e 1000 -c 2 -i 24 -a 2 -x {1.0 3.1 24 ------- null}
r -t 0.237122823529412 -s 2 -d 3 -p cbr -e 24 -c 2 -i 25 -a 2 -x {1.0 3.1 25 ------- null}
+ -t 0.239264 -s 1 -d 2 -p cbr -e 1000 -c 2 -i 34 -a 2 -x {1.0 3.1 34 ------- null}
- -t 0.239264 -s 1 -d 2 -p cbr -e 1000 -c 2 -i 34 -a 2 -x {1.0 3.1 34 ------- null}
h -t 0.239264 -s 1 -d 2 -p cbr -e 1000 -c 2 -i 34 -a 2 -x {1.0 3.1 -1 ------- null}
+ -t 0.239264 -s 1 -d 2 -p cbr -e 24 -c 2 -i 35 -a 2 -x {1.0 3.1 35 ------- null}
- -t 0.241585882352941 -s 2 -d 3 -p cbr -e 24 -c 2 -i 31 -a 2 -x {1.0 3.1 31 ------- null}
h -t 0.241585882352941 -s 2 -d 3 -p cbr -e 24 -c 2 -i 31 -a 2 -x {1.0 3.1 -1 ------- null}
- -t 0.243264 -s 1 -d 2 -p cbr -e 24 -c 2 -i 35 -a 2 -x {1.0 3.1 35 ------- null}
h -t 0.243264 -s 1 -d 2 -p cbr -e 24 -c 2 -i 35 -a 2 -x {1.0 3.1 -1 ------- null}
r -t 0.245072 -s 1 -d 2 -p cbr -e 1000 -c 2 -i 32 -a 2 -x {1.0 3.1 32 ------- null}
+ -t 0.245072 -s 2 -d 3 -p cbr -e 1000 -c 2 -i 32 -a 2 -x {1.0 3.1 32 ------- null}
- -t 0.245072 -s 2 -d 3 -p cbr -e 1000 -c 2 -i 32 -a 2 -x {1.0 3.1 32 ------- null}
h -t 0.245072 -s 2 -d 3 -p cbr -e 1000 -c 2 -i 32 -a 2 -x {1.0 3.1 -1 ------- null}
r -t 0.245168 -s 1 -d 2 -p cbr -e 24 -c 2 -i 33 -a 2 -x {1.0 3.1 33 ------- null}
+ -t 0.245168 -s 2 -d 3 -p cbr -e 24 -c 2 -i 33 -a 2 -x {1.0 3.1 33 ------- null}
r -t 0.245201882352941 -s 2 -d 3 -p cbr -e 1000 -c 2 -i 26 -a 2 -x {1.0 3.1 26 ------- null}
r -t 0.245314823529412 -s 2 -d 3 -p cbr -e 24 -c 2 -i 27 -a 2 -x {1.0 3.1 27 ------- null}
+ -t 0.247456 -s 1 -d 2 -p cbr -e 1000 -c 2 -i 36 -a 2 -x {1.0 3.1 36 ------- null}
- -t 0.247456 -s 1 -d 2 -p cbr -e 1000 -c 2 -i 36 -a 2 -x {1.0 3.1 36 ------- null}
h -t 0.247456 -s 1 -d 2 -p cbr -e 1000 -c 2 -i 36 -a 2 -x {1.0 3.1 -1 ------- null}
+ -t 0.247456 -s 1 -d 2 -p cbr -e 24 -c 2 -i 37 -a 2 -x {1.0 3.1 37 ------- null}
- -t 0.249777882352941 -s 2 -d 3 -p cbr -e 24 -c 2 -i 33 -a 2 -x {1.0 3.1 33 ------- null}
h -t 0.249777882352941 -s 2 -d 3 -p cbr -e 24 -c 2 -i 33 -a 2 -x {1.0 3.1 -1 ------- null}
- -t 0.251456 -s 1 -d 2 -p cbr -e 24 -c 2 -i 37 -a 2 -x {1.0 3.1 37 ------- null}
h -t 0.251456 -s 1 -d 2 -p cbr -e 24 -c 2 -i 37 -a 2 -x {1.0 3.1 -1 ------- null}
r -t 0.253264 -s 1 -d 2 -p cbr -e 1000 -c 2 -i 34 -a 2 -x {1.0 3.1 34 ------- null}
+ -t 0.253264 -s 2 -d 3 -p cbr -e 1000 -c 2 -i 34 -a 2 -x {1.0 3.1 34 ------- null}
- -t 0.253264 -s 2 -d 3 -p cbr -e 1000 -c 2 -i 34 -a 2 -x {1.0 3.1 34 ------- null}
h -t 0.253264 -s 2 -d 3 -p cbr -e 1000 -c 2 -i 34 -a 2 -x {1.0 3.1 -1 ------- null}
r -t 0.25336 -s 1 -d 2 -p cbr -e 24 -c 2 -i 35 -a 2 -x {1.0 3.1 35 ------- null}
+ -t 0.25336 -s 2 -d 3 -p cbr -e 24 -c 2 -i 35 -a 2 -x {1.0 3.1 35 ------- null}
r -t 0.253393882352941 -s 2 -d 3 -p cbr -e 1000 -c 2 -i 28 -a 2 -x {1.0 3.1 28 ------- null}
r -t 0.253506823529412 -s 2 -d 3 -p cbr -e 24 -c 2 -i 29 -a 2 -x {1.0 3.1 29 ------- null}
+ -t 0.255648 -s 1 -d 2 -p cbr -e 1000 -c 2 -i 38 -a 2 -x {1.0 3.1 38 ------- null}
- -t 0.255648 -s 1 -d 2 -p cbr -e 1000 -c 2 -i 38 -a 2 -x {1.0 3.1 38 ------- null}
h -t 0.255648 -s 1 -d 2 -p cbr -e 1000 -c 2 -i 38 -a 2 -x {1.0 3.1 -1 ------- null}
+ -t 0.255648 -s 1 -d 2 -p cbr -e 24 -c 2 -i 39 -a 2 -x {1.0 3.1 39 ------- null}
- -t 0.257969882352941 -s 2 -d 3 -p cbr -e 24 -c 2 -i 35 -a 2 -x {1.0 3.1 35 ------- null}
h -t 0.257969882352941 -s 2 -d 3 -p cbr -e 24 -c 2 -i 35 -a 2 -x {1.0 3.1 -1 ------- null}
- -t 0.259648 -s 1 -d 2 -p cbr -e 24 -c 2 -i 39 -a 2 -x {1.0 3.1 39 ------- null}
h -t 0.259648 -s 1 -d 2 -p cbr -e 24 -c 2 -i 39 -a 2 -x {1.0 3.1 -1 ------- null}
r -t 0.261456 -s 1 -d 2 -p cbr -e 1000 -c 2 -i 36 -a 2 -x {1.0 3.1 36 ------- null}
+ -t 0.261456 -s 2 -d 3 -p cbr -e 1000 -c 2 -i 36 -a 2 -x {1.0 3.1 36 ------- null}
- -t 0.261456 -s 2 -d 3 -p cbr -e 1000 -c 2 -i 36 -a 2 -x {1.0 3.1 36 ------- null}
h -t 0.261456 -s 2 -d 3 -p cbr -e 1000 -c 2 -i 36 -a 2 -x {1.0 3.1 -1 ------- null}
r -t 0.261552 -s 1 -d 2 -p cbr -e 24 -c 2 -i 37 -a 2 -x {1.0 3.1 37 ------- null}
+ -t 0.261552 -s 2 -d 3 -p cbr -e 24 -c 2 -i 37 -a 2 -x {1.0 3.1 37 ------- null}
r -t 0.261585882352941 -s 2 -d 3 -p cbr -e 1000 -c 2 -i 30 -a 2 -x {1.0 3.1 30 ------- null}
r -t 0.261698823529412 -s 2 -d 3 -p cbr -e 24 -c 2 -i 31 -a 2 -x {1.0 3.1 31 ------- null}
+ -t 0.26384 -s 1 -d 2 -p cbr -e 1000 -c 2 -i 40 -a 2 -x {1.0 3.1 40 ------- null}
- -t 0.26384 -s 1 -d 2 -p cbr -e 1000 -c 2 -i 40 -a 2 -x {1.0 3.1 40 ------- null}
h -t 0.26384 -s 1 -d 2 -p cbr -e 1000 -c 2 -i 40 -a 2 -x {1.0 3.1 -1 ------- null}
+ -t 0.26384 -s 1 -d 2 -p cbr -e 24 -c 2 -i 41 -a 2 -x {1.0 3.1 41 ------- null}
- -t 0.266161882352941 -s 2 -d 3 -p cbr -e 24 -c 2 -i 37 -a 2 -x {1.0 3.1 37 ------- null}
h -t 0.266161882352941 -s 2 -d 3 -p cbr -e 24 -c 2 -i 37 -a 2 -x {1.0 3.1 -1 ------- null}
- -t 0.26784 -s 1 -d 2 -p cbr -e 24 -c 2 -i 41 -a 2 -x {1.0 3.1 41 ------- null}
h -t 0.26784 -s 1 -d 2 -p cbr -e 24 -c 2 -i 41 -a 2 -x {1.0 3.1 -1 ------- null}
r -t 0.269648 -s 1 -d 2 -p cbr -e 1000 -c 2 -i 38 -a 2 -x {1.0 3.1 38 ------- null}
+ -t 0.269648 -s 2 -d 3 -p cbr -e 1000 -c 2 -i 38 -a 2 -x {1.0 3.1 38 ------- null}
- -t 0.269648 -s 2 -d 3 -p cbr -e 1000 -c 2 -i 38 -a 2 -x {1.0 3.1 38 ------- null}
h -t 0.269648 -s 2 -d 3 -p cbr -e 1000 -c 2 -i 38 -a 2 -x {1.0 3.1 -1 ------- null}
r -t 0.269744 -s 1 -d 2 -p cbr -e 24 -c 2 -i 39 -a 2 -x {1.0 3.1 39 ------- null}
+ -t 0.269744 -s 2 -d 3 -p cbr -e 24 -c 2 -i 39 -a 2 -x {1.0 3.1 39 ------- null}
r -t 0.269777882352941 -s 2 -d 3 -p cbr -e 1000 -c 2 -i 32 -a 2 -x {1.0 3.1 32 ------- null}
r -t 0.269890823529412 -s 2 -d 3 -p cbr -e 24 -c 2 -i 33 -a 2 -x {1.0 3.1 33 ------- null}
+ -t 0.272032 -s 1 -d 2 -p cbr -e 1000 -c 2 -i 42 -a 2 -x {1.0 3.1 42 ------- null}
- -t 0.272032 -s 1 -d 2 -p cbr -e 1000 -c 2 -i 42 -a 2 -x {1.0 3.1 42 ------- null}
h -t 0.272032 -s 1 -d 2 -p cbr -e 1000 -c 2 -i 42 -a 2 -x {1.0 3.1 -1 ------- null}
+ -t 0.272032 -s 1 -d 2 -p cbr -e 24 -c 2 -i 43 -a 2 -x {1.0 3.1 43 ------- null}
- -t 0.274353882352941 -s 2 -d 3 -p cbr -e 24 -c 2 -i 39 -a 2 -x {1.0 3.1 39 ------- null}
h -t 0.274353882352941 -s 2 -d 3 -p cbr -e 24 -c 2 -i 39 -a 2 -x {1.0 3.1 -1 ------- null}
- -t 0.276032 -s 1 -d 2 -p cbr -e 24 -c 2 -i 43 -a 2 -x {1.0 3.1 43 ------- null}
h -t 0.276032 -s 1 -d 2 -p cbr -e 24 -c 2 -i 43 -a 2 -x {1.0 3.1 -1 ------- null}
r -t 0.27784 -s 1 -d 2 -p cbr -e 1000 -c 2 -i 40 -a 2 -x {1.0 3.1 40 ------- null}
+ -t 0.27784 -s 2 -d 3 -p cbr -e 1000 -c 2 -i 40 -a 2 -x {1.0 3.1 40 ------- null}
- -t 0.27784 -s 2 -d 3 -p cbr -e 1000 -c 2 -i 40 -a 2 -x {1.0 3.1 40 ------- null}
h -t 0.27784 -s 2 -d 3 -p cbr -e 1000 -c 2 -i 40 -a 2 -x {1.0 3.1 -1 ------- null}
r -t 0.277936 -s 1 -d 2 -p cbr -e 24 -c 2 -i 41 -a 2 -x {1.0 3.1 41 ------- null}
+ -t 0.277936 -s 2 -d 3 -p cbr -e 24 -c 2 -i 41 -a 2 -x {1.0 3.1 41 ------- null}
r -t 0.277969882352941 -s 2 -d 3 -p cbr -e 1000 -c 2 -i 34 -a 2 -x {1.0 3.1 34 ------- null}
r -t 0.278082823529412 -s 2 -d 3 -p cbr -e 24 -c 2 -i 35 -a 2 -x {1.0 3.1 35 ------- null}
+ -t 0.280224 -s 1 -d 2 -p cbr -e 1000 -c 2 -i 44 -a 2 -x {1.0 3.1 44 ------- null}
- -t 0.280224 -s 1 -d 2 -p cbr -e 1000 -c 2 -i 44 -a 2 -x {1.0 3.1 44 ------- null}
h -t 0.280224 -s 1 -d 2 -p cbr -e 1000 -c 2 -i 44 -a 2 -x {1.0 3.1 -1 ------- null}
+ -t 0.280224 -s 1 -d 2 -p cbr -e 24 -c 2 -i 45 -a 2 -x {1.0 3.1 45 ------- null}
- -t 0.282545882352941 -s 2 -d 3 -p cbr -e 24 -c 2 -i 41 -a 2 -x {1.0 3.1 41 ------- null}
h -t 0.282545882352941 -s 2 -d 3 -p cbr -e 24 -c 2 -i 41 -a 2 -x {1.0 3.1 -1 ------- null}
- -t 0.284224 -s 1 -d 2 -p cbr -e 24 -c 2 -i 45 -a 2 -x {1.0 3.1 45 ------- null}
h -t 0.284224 -s 1 -d 2 -p cbr -e 24 -c 2 -i 45 -a 2 -x {1.0 3.1 -1 ------- null}
r -t 0.286032 -s 1 -d 2 -p cbr -e 1000 -c 2 -i 42 -a 2 -x {1.0 3.1 42 ------- null}
+ -t 0.286032 -s 2 -d 3 -p cbr -e 1000 -c 2 -i 42 -a 2 -x {1.0 3.1 42 ------- null}
- -t 0.286032 -s 2 -d 3 -p cbr -e 1000 -c 2 -i 42 -a 2 -x {1.0 3.1 42 ------- null}
h -t 0.286032 -s 2 -d 3 -p cbr -e 1000 -c 2 -i 42 -a 2 -x {1.0 3.1 -1 ------- null}
r -t 0.286128 -s 1 -d 2 -p cbr -e 24 -c 2 -i 43 -a 2 -x {1.0 3.1 43 ------- null}
+ -t 0.286128 -s 2 -d 3 -p cbr -e 24 -c 2 -i 43 -a 2 -x {1.0 3.1 43 ------- null}
r -t 0.286161882352941 -s 2 -d 3 -p cbr -e 1000 -c 2 -i 36 -a 2 -x {1.0 3.1 36 ------- null}