V -t * -v 1.0a5 -a 0
A -t * -n 1 -p 0 -o 0x7fffffff -c 30 -a 1
A -t * -h 1 -m 1073741823 -s 0
c -t * -i 1 -n Blue
c -t * -i 2 -n Red
n -t * -a 4 -s 4 -S UP -v circle -c black -i black
n -t * -a 0 -s 0 -S UP -v circle -c black -i black
n -t * -a 5 -s 5 -S UP -v circle -c black -i black
n -t * -a 1 -s 1 -S UP -v circle -c black -i black
n -t * -a 6 -s 6 -S UP -v circle -c black -i black
n -t * -a 2 -s 2 -S UP -v circle -c black -i black
n -t * -a 7 -s 7 -S UP -v circle -c black -i black
n -t * -a 3 -s 3 -S UP -v circle -c black -i black
l -t * -s 0 -d 2 -S UP -r 10000000 -D 0.01 -c black -o right-down
l -t * -s 1 -d 2 -S UP -r 10000000 -D 0.01 -c black -o left-down
l -t * -s 2 -d 3 -S UP -r 10000000 -D 0.01 -c black -o right
l -t * -s 3 -d 5 -S UP -r 10000000 -D 0.01 -c black -o right-down
l -t * -s 4 -d 2 -S UP -r 10000000 -D 0.01 -c black -o right-up
l -t * -s 4 -d 7 -S UP -r 10000000 -D 0.01 -c black -o right-down
l -t * -s 5 -d 6 -S UP -r 10000000 -D 0.01 -c black -o left-down
l -t * -s 6 -d 7 -S UP -r 10000000 -D 0.01 -c black -o left
+ -t 0.000169788487334637 -s 0 -d 2 -p rtProtoDV -e 8 -c 0 -i 0 -a 0 -x {0.2 2.1 -1 ------- null}
- -t 0.000169788487334637 -s 0 -d 2 -p rtProtoDV -e 8 -c 0 -i 0 -a 0 -x {0.2 2.1 -1 ------- null}
h -t 0.000169788487334637 -s 0 -d 2 -p rtProtoDV -e 8 -c 0 -i 0 -a 0 -x {0.2 2.1 -1 ------- null}
+ -t 0.00710233021858257 -s 2 -d 0 -p rtProtoDV -e 8 -c 0 -i 1 -a 0 -x {2.1 0.2 -1 ------- null}
- -t 0.00710233021858257 -s 2 -d 0 -p rtProtoDV -e 8 -c 0 -i 1 -a 0 -x {2.1 0.2 -1 ------- null}
h -t 0.00710233021858257 -s 2 -d 0 -p rtProtoDV -e 8 -c 0 -i 1 -a 0 -x {2.1 0.2 -1 ------- null}
+ -t 0.00710233021858257 -s 2 -d 1 -p rtProtoDV -e 8 -c 0 -i 2 -a 0 -x {2.1 1.2 -1 ------- null}
- -t 0.00710233021858257 -s 2 -d 1 -p rtProtoDV -e 8 -c 0 -i 2 -a 0 -x {2.1 1.2 -1 ------- null}
h -t 0.00710233021858257 -s 2 -d 1 -p rtProtoDV -e 8 -c 0 -i 2 -a 0 -x {2.1 1.2 -1 ------- null}
+ -t 0.00710233021858257 -s 2 -d 3 -p rtProtoDV -e 8 -c 0 -i 3 -a 0 -x {2.1 3.1 -1 ------- null}
- -t 0.00710233021858257 -s 2 -d 3 -p rtProtoDV -e 8 -c 0 -i 3 -a 0 -x {2.1 3.1 -1 ------- null}
h -t 0.00710233021858257 -s 2 -d 3 -p rtProtoDV -e 8 -c 0 -i 3 -a 0 -x {2.1 3.1 -1 ------- null}
+ -t 0.00710233021858257 -s 2 -d 4 -p rtProtoDV -e 8 -c 0 -i 4 -a 0 -x {2.1 4.1 -1 ------- null}
- -t 0.00710233021858257 -s 2 -d 4 -p rtProtoDV -e 8 -c 0 -i 4 -a 0 -x {2.1 4.1 -1 ------- null}
h -t 0.00710233021858257 -s 2 -d 4 -p rtProtoDV -e 8 -c 0 -i 4 -a 0 -x {2.1 4.1 -1 ------- null}
r -t 0.0101761884873346 -s 0 -d 2 -p rtProtoDV -e 8 -c 0 -i 0 -a 0 -x {0.2 2.1 -1 ------- null}
r -t 0.0171087302185826 -s 2 -d 0 -p rtProtoDV -e 8 -c 0 -i 1 -a 0 -x {2.1 0.2 -1 ------- null}
+ -t 0.0171087302185826 -s 0 -d 2 -p rtProtoDV -e 8 -c 0 -i 5 -a 0 -x {0.2 2.1 -1 ------- null}
- -t 0.0171087302185826 -s 0 -d 2 -p rtProtoDV -e 8 -c 0 -i 5 -a 0 -x {0.2 2.1 -1 ------- null}
h -t 0.0171087302185826 -s 0 -d 2 -p rtProtoDV -e 8 -c 0 -i 5 -a 0 -x {0.2 2.1 -1 ------- null}
r -t 0.0171087302185826 -s 2 -d 1 -p rtProtoDV -e 8 -c 0 -i 2 -a 0 -x {2.1 1.2 -1 ------- null}
+ -t 0.0171087302185826 -s 1 -d 2 -p rtProtoDV -e 8 -c 0 -i 6 -a 0 -x {1.2 2.1 -1 ------- null}
- -t 0.0171087302185826 -s 1 -d 2 -p rtProtoDV -e 8 -c 0 -i 6 -a 0 -x {1.2 2.1 -1 ------- null}
h -t 0.0171087302185826 -s 1 -d 2 -p rtProtoDV -e 8 -c 0 -i 6 -a 0 -x {1.2 2.1 -1 ------- null}
r -t 0.0171087302185826 -s 2 -d 3 -p rtProtoDV -e 8 -c 0 -i 3 -a 0 -x {2.1 3.1 -1 ------- null}
+ -t 0.0171087302185826 -s 3 -d 2 -p rtProtoDV -e 8 -c 0 -i 7 -a 0 -x {3.1 2.1 -1 ------- null}
- -t 0.0171087302185826 -s 3 -d 2 -p rtProtoDV -e 8 -c 0 -i 7 -a 0 -x {3.1 2.1 -1 ------- null}
h -t 0.0171087302185826 -s 3 -d 2 -p rtProtoDV -e 8 -c 0 -i 7 -a 0 -x {3.1 2.1 -1 ------- null}
+ -t 0.0171087302185826 -s 3 -d 5 -p rtProtoDV -e 8 -c 0 -i 8 -a 0 -x {3.1 5.1 -1 ------- null}
- -t 0.0171087302185826 -s 3 -d 5 -p rtProtoDV -e 8 -c 0 -i 8 -a 0 -x {3.1 5.1 -1 ------- null}
h -t 0.0171087302185826 -s 3 -d 5 -p rtProtoDV -e 8 -c 0 -i 8 -a 0 -x {3.1 5.1 -1 ------- null}
r -t 0.0171087302185826 -s 2 -d 4 -p rtProtoDV -e 8 -c 0 -i 4 -a 0 -x {2.1 4.1 -1 ------- null}
+ -t 0.0171087302185826 -s 4 -d 2 -p rtProtoDV -e 8 -c 0 -i 9 -a 0 -x {4.1 2.1 -1 ------- null}
- -t 0.0171087302185826 -s 4 -d 2 -p rtProtoDV -e 8 -c 0 -i 9 -a 0 -x {4.1 2.1 -1 ------- null}
h -t 0.0171087302185826 -s 4 -d 2 -p rtProtoDV -e 8 -c 0 -i 9 -a 0 -x {4.1 2.1 -1 ------- null}
+ -t 0.0171087302185826 -s 4 -d 7 -p rtProtoDV -e 8 -c 0 -i 10 -a 0 -x {4.1 7.2 -1 ------- null}
- -t 0.0171087302185826 -s 4 -d 7 -p rtProtoDV -e 8 -c 0 -i 10 -a 0 -x {4.1 7.2 -1 ------- null}
h -t 0.0171087302185826 -s 4 -d 7 -p rtProtoDV -e 8 -c 0 -i 10 -a 0 -x {4.1 7.2 -1 ------- null}
r -t 0.0271151302185826 -s 0 -d 2 -p rtProtoDV -e 8 -c 0 -i 5 -a 0 -x {0.2 2.1 -1 ------- null}
r -t 0.0271151302185826 -s 1 -d 2 -p rtProtoDV -e 8 -c 0 -i 6 -a 0 -x {1.2 2.1 -1 ------- null}
r -t 0.0271151302185826 -s 3 -d 2 -p rtProtoDV -e 8 -c 0 -i 7 -a 0 -x {3.1 2.1 -1 ------- null}
+ -t 0.0271151302185826 -s 2 -d 0 -p rtProtoDV -e 8 -c 0 -i 11 -a 0 -x {2.1 0.2 -1 ------- null}
- -t 0.0271151302185826 -s 2 -d 0 -p rtProtoDV -e 8 -c 0 -i 11 -a 0 -x {2.1 0.2 -1 ------- null}
h -t 0.0271151302185826 -s 2 -d 0 -p rtProtoDV -e 8 -c 0 -i 11 -a 0 -x {2.1 0.2 -1 ------- null}
+ -t 0.0271151302185826 -s 2 -d 1 -p rtProtoDV -e 8 -c 0 -i 12 -a 0 -x {2.1 1.2 -1 ------- null}
- -t 0.0271151302185826 -s 2 -d 1 -p rtProtoDV -e 8 -c 0 -i 12 -a 0 -x {2.1 1.2 -1 ------- null}
h -t 0.0271151302185826 -s 2 -d 1 -p rtProtoDV -e 8 -c 0 -i 12 -a 0 -x {2.1 1.2 -1 ------- null}
+ -t 0.0271151302185826 -s 2 -d 3 -p rtProtoDV -e 8 -c 0 -i 13 -a 0 -x {2.1 3.1 -1 ------- null}
- -t 0.0271151302185826 -s 2 -d 3 -p rtProtoDV -e 8 -c 0 -i 13 -a 0 -x {2.1 3.1 -1 ------- null}
h -t 0.0271151302185826 -s 2 -d 3 -p rtProtoDV -e 8 -c 0 -i 13 -a 0 -x {2.1 3.1 -1 ------- null}
+ -t 0.0271151302185826 -s 2 -d 4 -p rtProtoDV -e 8 -c 0 -i 14 -a 0 -x {2.1 4.1 -1 ------- null}
- -t 0.0271151302185826 -s 2 -d 4 -p rtProtoDV -e 8 -c 0 -i 14 -a 0 -x {2.1 4.1 -1 ------- null}
h -t 0.0271151302185826 -s 2 -d 4 -p rtProtoDV -e 8 -c 0 -i 14 -a 0 -x {2.1 4.1 -1 ------- null}
r -t 0.0271151302185826 -s 3 -d 5 -p rtProtoDV -e 8 -c 0 -i 8 -a 0 -x {3.1 5.1 -1 ------- null}
+ -t 0.0271151302185826 -s 5 -d 3 -p rtProtoDV -e 8 -c 0 -i 15 -a 0 -x {5.1 3.1 -1 ------- null}
- -t 0.0271151302185826 -s 5 -d 3 -p rtProtoDV -e 8 -c 0 -i 15 -a 0 -x {5.1 3.1 -1 ------- null}
h -t 0.0271151302185826 -s 5 -d 3 -p rtProtoDV -e 8 -c 0 -i 15 -a 0 -x {5.1 3.1 -1 ------- null}
+ -t 0.0271151302185826 -s 5 -d 6 -p rtProtoDV -e 8 -c 0 -i 16 -a 0 -x {5.1 6.1 -1 ------- null}
- -t 0.0271151302185826 -s 5 -d 6 -p rtProtoDV -e 8 -c 0 -i 16 -a 0 -x {5.1 6.1 -1 ------- null}
h -t 0.0271151302185826 -s 5 -d 6 -p rtProtoDV -e 8 -c 0 -i 16 -a 0 -x {5.1 6.1 -1 ------- null}
r -t 0.0271151302185826 -s 4 -d 2 -p rtProtoDV -e 8 -c 0 -i 9 -a 0 -x {4.1 2.1 -1 ------- null}
+ -t 0.0271151302185826 -s 2 -d 0 -p rtProtoDV -e 8 -c 0 -i 17 -a 0 -x {2.1 0.2 -1 ------- null}
+ -t 0.0271151302185826 -s 2 -d 1 -p rtProtoDV -e 8 -c 0 -i 18 -a 0 -x {2.1 1.2 -1 ------- null}
+ -t 0.0271151302185826 -s 2 -d 3 -p rtProtoDV -e 8 -c 0 -i 19 -a 0 -x {2.1 3.1 -1 ------- null}
+ -t 0.0271151302185826 -s 2 -d 4 -p rtProtoDV -e 8 -c 0 -i 20 -a 0 -x {2.1 4.1 -1 ------- null}
r -t 0.0271151302185826 -s 4 -d 7 -p rtProtoDV -e 8 -c 0 -i 10 -a 0 -x {4.1 7.2 -1 ------- null}
+ -t 0.0271151302185826 -s 7 -d 4 -p rtProtoDV -e 8 -c 0 -i 21 -a 0 -x {7.2 4.1 -1 ------- null}
- -t 0.0271151302185826 -s 7 -d 4 -p rtProtoDV -e 8 -c 0 -i 21 -a 0 -x {7.2 4.1 -1 ------- null}
h -t 0.0271151302185826 -s 7 -d 4 -p rtProtoDV -e 8 -c 0 -i 21 -a 0 -x {7.2 4.1 -1 ------- null}
+ -t 0.0271151302185826 -s 7 -d 6 -p rtProtoDV -e 8 -c 0 -i 22 -a 0 -x {7.2 6.1 -1 ------- null}
- -t 0.0271151302185826 -s 7 -d 6 -p rtProtoDV -e 8 -c 0 -i 22 -a 0 -x {7.2 6.1 -1 ------- null}
h -t 0.0271151302185826 -s 7 -d 6 -p rtProtoDV -e 8 -c 0 -i 22 -a 0 -x {7.2 6.1 -1 ------- null}
- -t 0.0271215302185826 -s 2 -d 0 -p rtProtoDV -e 8 -c 0 -i 17 -a 0 -x {2.1 0.2 -1 ------- null}
h -t 0.0271215302185826 -s 2 -d 0 -p rtProtoDV -e 8 -c 0 -i 17 -a 0 -x {2.1 0.2 -1 ------- null}
- -t 0.0271215302185826 -s 2 -d 1 -p rtProtoDV -e 8 -c 0 -i 18 -a 0 -x {2.1 1.2 -1 ------- null}
h -t 0.0271215302185826 -s 2 -d 1 -p rtProtoDV -e 8 -c 0 -i 18 -a 0 -x {2.1 1.2 -1 ------- null}
- -t 0.0271215302185826 -s 2 -d 3 -p rtProtoDV -e 8 -c 0 -i 19 -a 0 -x {2.1 3.1 -1 ------- null}
h -t 0.0271215302185826 -s 2 -d 3 -p rtProtoDV -e 8 -c 0 -i 19 -a 0 -x {2.1 3.1 -1 ------- null}
- -t 0.0271215302185826 -s 2 -d 4 -p rtProtoDV -e 8 -c 0 -i 20 -a 0 -x {2.1 4.1 -1 ------- null}
h -t 0.0271215302185826 -s 2 -d 4 -p rtProtoDV -e 8 -c 0 -i 20 -a 0 -x {2.1 4.1 -1 ------- null}
r -t 0.0371215302185826 -s 2 -d 0 -p rtProtoDV -e 8 -c 0 -i 11 -a 0 -x {2.1 0.2 -1 ------- null}
+ -t 0.0371215302185826 -s 0 -d 2 -p rtProtoDV -e 8 -c 0 -i 23 -a 0 -x {0.2 2.1 -1 ------- null}
- -t 0.0371215302185826 -s 0 -d 2 -p rtProtoDV -e 8 -c 0 -i 23 -a 0 -x {0.2 2.1 -1 ------- null}
h -t 0.0371215302185826 -s 0 -d 2 -p rtProtoDV -e 8 -c 0 -i 23 -a 0 -x {0.2 2.1 -1 ------- null}
r -t 0.0371215302185826 -s 2 -d 1 -p rtProtoDV -e 8 -c 0 -i 12 -a 0 -x {2.1 1.2 -1 ------- null}
+ -t 0.0371215302185826 -s 1 -d 2 -p rtProtoDV -e 8 -c 0 -i 24 -a 0 -x {1.2 2.1 -1 ------- null}
- -t 0.0371215302185826 -s 1 -d 2 -p rtProtoDV -e 8 -c 0 -i 24 -a 0 -x {1.2 2.1 -1 ------- null}
h -t 0.0371215302185826 -s 1 -d 2 -p rtProtoDV -e 8 -c 0 -i 24 -a 0 -x {1.2 2.1 -1 ------- null}
r -t 0.0371215302185826 -s 2 -d 3 -p rtProtoDV -e 8 -c 0 -i 13 -a 0 -x {2.1 3.1 -1 ------- null}
r -t 0.0371215302185826 -s 2 -d 4 -p rtProtoDV -e 8 -c 0 -i 14 -a 0 -x {2.1 4.1 -1 ------- null}
+ -t 0.0371215302185826 -s 4 -d 2 -p rtProtoDV -e 8 -c 0 -i 25 -a 0 -x {4.1 2.1 -1 ------- null}
- -t 0.0371215302185826 -s 4 -d 2 -p rtProtoDV -e 8 -c 0 -i 25 -a 0 -x {4.1 2.1 -1 ------- null}
h -t 0.0371215302185826 -s 4 -d 2 -p rtProtoDV -e 8 -c 0 -i 25 -a 0 -x {4.1 2.1 -1 ------- null}
+ -t 0.0371215302185826 -s 4 -d 7 -p rtProtoDV -e 8 -c 0 -i 26 -a 0 -x {4.1 7.2 -1 ------- null}
- -t 0.0371215302185826 -s 4 -d 7 -p rtProtoDV -e 8 -c 0 -i 26 -a 0 -x {4.1 7.2 -1 ------- null}
h -t 0.0371215302185826 -s 4 -d 7 -p rtProtoDV -e 8 -c 0 -i 26 -a 0 -x {4.1 7.2 -1 ------- null}
r -t 0.0371215302185826 -s 5 -d 3 -p rtProtoDV -e 8 -c 0 -i 15 -a 0 -x {5.1 3.1 -1 ------- null}
+ -t 0.0371215302185826 -s 3 -d 2 -p rtProtoDV -e 8 -c 0 -i 27 -a 0 -x {3.1 2.1 -1 ------- null}
- -t 0.0371215302185826 -s 3 -d 2 -p rtProtoDV -e 8 -c 0 -i 27 -a 0 -x {3.1 2.1 -1 ------- null}
h -t 0.0371215302185826 -s 3 -d 2 -p rtProtoDV -e 8 -c 0 -i 27 -a 0 -x {3.1 2.1 -1 ------- null}
+ -t 0.0371215302185826 -s 3 -d 5 -p rtProtoDV -e 8 -c 0 -i 28 -a 0 -x {3.1 5.1 -1 ------- null}
- -t 0.0371215302185826 -s 3 -d 5 -p rtProtoDV -e 8 -c 0 -i 28 -a 0 -x {3.1 5.1 -1 ------- null}
h -t 0.0371215302185826 -s 3 -d 5 -p rtProtoDV -e 8 -c 0 -i 28 -a 0 -x {3.1 5.1 -1 ------- null}
r -t 0.0371215302185826 -s 5 -d 6 -p rtProtoDV -e 8 -c 0 -i 16 -a 0 -x {5.1 6.1 -1 ------- null}
+ -t 0.0371215302185826 -s 6 -d 5 -p rtProtoDV -e 8 -c 0 -i 29 -a 0 -x {6.1 5.1 -1 ------- null}
- -t 0.0371215302185826 -s 6 -d 5 -p rtProtoDV -e 8 -c 0 -i 29 -a 0 -x {6.1 5.1 -1 ------- null}
h -t 0.0371215302185826 -s 6 -d 5 -p rtProtoDV -e 8 -c 0 -i 29 -a 0 -x {6.1 5.1 -1 ------- null}
+ -t 0.0371215302185826 -s 6 -d 7 -p rtProtoDV -e 8 -c 0 -i 30 -a 0 -x {6.1 7.2 -1 ------- null}
- -t 0.0371215302185826 -s 6 -d 7 -p rtProtoDV -e 8 -c 0 -i 30 -a 0 -x {6.1 7.2 -1 ------- null}
h -t 0.0371215302185826 -s 6 -d 7 -p rtProtoDV -e 8 -c 0 -i 30 -a 0 -x {6.1 7.2 -1 ------- null}
r -t 0.0371215302185826 -s 7 -d 4 -p rtProtoDV -e 8 -c 0 -i 21 -a 0 -x {7.2 4.1 -1 ------- null}
+ -t 0.0371215302185826 -s 4 -d 2 -p rtProtoDV -e 8 -c 0 -i 31 -a 0 -x {4.1 2.1 -1 ------- null}
+ -t 0.0371215302185826 -s 4 -d 7 -p rtProtoDV -e 8 -c 0 -i 32 -a 0 -x {4.1 7.2 -1 ------- null}
r -t 0.0371215302185826 -s 7 -d 6 -p rtProtoDV -e 8 -c 0 -i 22 -a 0 -x {7.2 6.1 -1 ------- null}
+ -t 0.0371215302185826 -s 6 -d 5 -p rtProtoDV -e 8 -c 0 -i 33 -a 0 -x {6.1 5.1 -1 ------- null}
+ -t 0.0371215302185826 -s 6 -d 7 -p rtProtoDV -e 8 -c 0 -i 34 -a 0 -x {6.1 7.2 -1 ------- null}
- -t 0.0371279302185826 -s 4 -d 2 -p rtProtoDV -e 8 -c 0 -i 31 -a 0 -x {4.1 2.1 -1 ------- null}
h -t 0.0371279302185826 -s 4 -d 2 -p rtProtoDV -e 8 -c 0 -i 31 -a 0 -x {4.1 2.1 -1 ------- null}
- -t 0.0371279302185826 -s 4 -d 7 -p rtProtoDV -e 8 -c 0 -i 32 -a 0 -x {4.1 7.2 -1 ------- null}
h -t 0.0371279302185826 -s 4 -d 7 -p rtProtoDV -e 8 -c 0 -i 32 -a 0 -x {4.1 7.2 -1 ------- null}
- -t 0.0371279302185826 -s 6 -d 5 -p rtProtoDV -e 8 -c 0 -i 33 -a 0 -x {6.1 5.1 -1 ------- null}
h -t 0.0371279302185826 -s 6 -d 5 -p rtProtoDV -e 8 -c 0 -i 33 -a 0 -x {6.1 5.1 -1 ------- null}
- -t 0.0371279302185826 -s 6 -d 7 -p rtProtoDV -e 8 -c 0 -i 34 -a 0 -x {6.1 7.2 -1 ------- null}
h -t 0.0371279302185826 -s 6 -d 7 -p rtProtoDV -e 8 -c 0 -i 34 -a 0 -x {6.1 7.2 -1 ------- null}
r -t 0.0371279302185826 -s 2 -d 0 -p rtProtoDV -e 8 -c 0 -i 17 -a 0 -x {2.1 0.2 -1 ------- null}
+ -t 0.0371279302185826 -s 0 -d 2 -p rtProtoDV -e 8 -c 0 -i 35 -a 0 -x {0.2 2.1 -1 ------- null}
- -t 0.0371279302185826 -s 0 -d 2 -p rtProtoDV -e 8 -c 0 -i 35 -a 0 -x {0.2 2.1 -1 ------- null}
h -t 0.0371279302185826 -s 0 -d 2 -p rtProtoDV -e 8 -c 0 -i 35 -a 0 -x {0.2 2.1 -1 ------- null}
r -t 0.0371279302185826 -s 2 -d 1 -p rtProtoDV -e 8 -c 0 -i 18 -a 0 -x {2.1 1.2 -1 ------- null}
+ -t 0.0371279302185826 -s 1 -d 2 -p rtProtoDV -e 8 -c 0 -i 36 -a 0 -x {1.2 2.1 -1 ------- null}
- -t 0.0371279302185826 -s 1 -d 2 -p rtProtoDV -e 8 -c 0 -i 36 -a 0 -x {1.2 2.1 -1 ------- null}
h -t 0.0371279302185826 -s 1 -d 2 -p rtProtoDV -e 8 -c 0 -i 36 -a 0 -x {1.2 2.1 -1 ------- null}
r -t 0.0371279302185826 -s 2 -d 3 -p rtProtoDV -e 8 -c 0 -i 19 -a 0 -x {2.1 3.1 -1 ------- null}
+ -t 0.0371279302185826 -s 3 -d 2 -p rtProtoDV -e 8 -c 0 -i 37 -a 0 -x {3.1 2.1 -1 ------- null}
- -t 0.0371279302185826 -s 3 -d 2 -p rtProtoDV -e 8 -c 0 -i 37 -a 0 -x {3.1 2.1 -1 ------- null}
h -t 0.0371279302185826 -s 3 -d 2 -p rtProtoDV -e 8 -c 0 -i 37 -a 0 -x {3.1 2.1 -1 ------- null}
+ -t 0.0371279302185826 -s 3 -d 5 -p rtProtoDV -e 8 -c 0 -i 38 -a 0 -x {3.1 5.1 -1 ------- null}
- -t 0.0371279302185826 -s 3 -d 5 -p rtProtoDV -e 8 -c 0 -i 38 -a 0 -x {3.1 5.1 -1 ------- null}
h -t 0.0371279302185826 -s 3 -d 5 -p rtProtoDV -e 8 -c 0 -i 38 -a 0 -x {3.1 5.1 -1 ------- null}
r -t 0.0371279302185826 -s 2 -d 4 -p rtProtoDV -e 8 -c 0 -i 20 -a 0 -x {2.1 4.1 -1 ------- null}
+ -t 0.04406133552271 -s 3 -d 2 -p rtProtoDV -e 8 -c 0 -i 39 -a 0 -x {3.1 2.1 -1 ------- null}
- -t 0.04406133552271 -s 3 -d 2 -p rtProtoDV -e 8 -c 0 -i 39 -a 0 -x {3.1 2.1 -1 ------- null}
h -t 0.04406133552271 -s 3 -d 2 -p rtProtoDV -e 8 -c 0 -i 39 -a 0 -x {3.1 2.1 -1 ------- null}
+ -t 0.04406133552271 -s 3 -d 5 -p rtProtoDV -e 8 -c 0 -i 40 -a 0 -x {3.1 5.1 -1 ------- null}
- -t 0.04406133552271 -s 3 -d 5 -p rtProtoDV -e 8 -c 0 -i 40 -a 0 -x {3.1 5.1 -1 ------- null}
h -t 0.04406133552271 -s 3 -d 5 -p rtProtoDV -e 8 -c 0 -i 40 -a 0 -x {3.1 5.1 -1 ------- null}
r -t 0.0471279302185826 -s 0 -d 2 -p rtProtoDV -e 8 -c 0 -i 23 -a 0 -x {0.2 2.1 -1 ------- null}
r -t 0.0471279302185826 -s 1 -d 2 -p rtProtoDV -e 8 -c 0 -i 24 -a 0 -x {1.2 2.1 -1 ------- null}
r -t 0.0471279302185826 -s 4 -d 2 -p rtProtoDV -e 8 -c 0 -i 25 -a 0 -x {4.1 2.1 -1 ------- null}
r -t 0.0471279302185826 -s 4 -d 7 -p rtProtoDV -e 8 -c 0 -i 26 -a 0 -x {4.1 7.2 -1 ------- null}
+ -t 0.0471279302185826 -s 7 -d 4 -p rtProtoDV -e 8 -c 0 -i 41 -a 0 -x {7.2 4.1 -1 ------- null}
- -t 0.0471279302185826 -s 7 -d 4 -p rtProtoDV -e 8 -c 0 -i 41 -a 0 -x {7.2 4.1 -1 ------- null}
h -t 0.0471279302185826 -s 7 -d 4 -p rtProtoDV -e 8 -c 0 -i 41 -a 0 -x {7.2 4.1 -1 ------- null}
+ -t 0.0471279302185826 -s 7 -d 6 -p rtProtoDV -e 8 -c 0 -i 42 -a 0 -x {7.2 6.1 -1 ------- null}
- -t 0.0471279302185826 -s 7 -d 6 -p rtProtoDV -e 8 -c 0 -i 42 -a 0 -x {7.2 6.1 -1 ------- null}
h -t 0.0471279302185826 -s 7 -d 6 -p rtProtoDV -e 8 -c 0 -i 42 -a 0 -x {7.2 6.1 -1 ------- null}
r -t 0.0471279302185826 -s 3 -d 2 -p rtProtoDV -e 8 -c 0 -i 27 -a 0 -x {3.1 2.1 -1 ------- null}
+ -t 0.0471279302185826 -s 2 -d 0 -p rtProtoDV -e 8 -c 0 -i 43 -a 0 -x {2.1 0.2 -1 ------- null}
- -t 0.0471279302185826 -s 2 -d 0 -p rtProtoDV -e 8 -c 0 -i 43 -a 0 -x {2.1 0.2 -1 ------- null}
h -t 0.0471279302185826 -s 2 -d 0 -p rtProtoDV -e 8 -c 0 -i 43 -a 0 -x {2.1 0.2 -1 ------- null}
+ -t 0.0471279302185826 -s 2 -d 1 -p rtProtoDV -e 8 -c 0 -i 44 -a 0 -x {2.1 1.2 -1 ------- null}
- -t 0.0471279302185826 -s 2 -d 1 -p rtProtoDV -e 8 -c 0 -i 44 -a 0 -x {2.1 1.2 -1 ------- null}
h -t 0.0471279302185826 -s 2 -d 1 -p rtProtoDV -e 8 -c 0 -i 44 -a 0 -x {2.1 1.2 -1 ------- null}
+ -t 0.0471279302185826 -s 2 -d 3 -p rtProtoDV -e 8 -c 0 -i 45 -a 0 -x {2.1 3.1 -1 ------- null}
- -t 0.0471279302185826 -s 2 -d 3 -p rtProtoDV -e 8 -c 0 -i 45 -a 0 -x {2.1 3.1 -1 ------- null}
h -t 0.0471279302185826 -s 2 -d 3 -p rtProtoDV -e 8 -c 0 -i 45 -a 0 -x {2.1 3.1 -1 ------- null}
+ -t 0.0471279302185826 -s 2 -d 4 -p rtProtoDV -e 8 -c 0 -i 46 -a 0 -x {2.1 4.1 -1 ------- null}
- -t 0.0471279302185826 -s 2 -d 4 -p rtProtoDV -e 8 -c 0 -i 46 -a 0 -x {2.1 4.1 -1 ------- null}
h -t 0.0471279302185826 -s 2 -d 4 -p rtProtoDV -e 8 -c 0 -i 46 -a 0 -x {2.1 4.1 -1 ------- null}
r -t 0.0471279302185826 -s 3 -d 5 -p rtProtoDV -e 8 -c 0 -i 28 -a 0 -x {3.1 5.1 -1 ------- null}
r -t 0.0471279302185826 -s 6 -d 5 -p rtProtoDV -e 8 -c 0 -i 29 -a 0 -x {6.1 5.1 -1 ------- null}
+ -t 0.0471279302185826 -s 5 -d 3 -p rtProtoDV -e 8 -c 0 -i 47 -a 0 -x {5.1 3.1 -1 ------- null}
- -t 0.0471279302185826 -s 5 -d 3 -p rtProtoDV -e 8 -c 0 -i 47 -a 0 -x {5.1 3.1 -1 ------- null}
h -t 0.0471279302185826 -s 5 -d 3 -p rtProtoDV -e 8 -c 0 -i 47 -a 0 -x {5.1 3.1 -1 ------- null}
+ -t 0.0471279302185826 -s 5 -d 6 -p rtProtoDV -e 8 -c 0 -i 48 -a 0 -x {5.1 6.1 -1 ------- null}
- -t 0.0471279302185826 -s 5 -d 6 -p rtProtoDV -e 8 -c 0 -i 48 -a 0 -x {5.1 6.1 -1 ------- null}
h -t 0.0471279302185826 -s 5 -d 6 -p rtProtoDV -e 8 -c 0 -i 48 -a 0 -x {5.1 6.1 -1 ------- null}
r -t 0.0471279302185826 -s 6 -d 7 -p rtProtoDV -e 8 -c 0 -i 30 -a 0 -x {6.1 7.2 -1 ------- null}
+ -t 0.0471279302185826 -s 7 -d 4 -p rtProtoDV -e 8 -c 0 -i 49 -a 0 -x {7.2 4.1 -1 ------- null}
+ -t 0.0471279302185826 -s 7 -d 6 -p rtProtoDV -e 8 -c 0 -i 50 -a 0 -x {7.2 6.1 -1 ------- null}
r -t 0.0471343302185826 -s 4 -d 2 -p rtProtoDV -e 8 -c 0 -i 31 -a 0 -x {4.1 2.1 -1 ------- null}
r -t 0.0471343302185826 -s 4 -d 7 -p rtProtoDV -e 8 -c 0 -i 32 -a 0 -x {4.1 7.2 -1 ------- null}
r -t 0.0471343302185826 -s 6 -d 5 -p rtProtoDV -e 8 -c 0 -i 33 -a 0 -x {6.1 5.1 -1 ------- null}
r -t 0.0471343302185826 -s 6 -d 7 -p rtProtoDV -e 8 -c 0 -i 34 -a 0 -x {6.1 7.2 -1 ------- null}
- -t 0.0471343302185826 -s 7 -d 4 -p rtProtoDV -e 8 -c 0 -i 49 -a 0 -x {7.2 4.1 -1 ------- null}
h -t 0.0471343302185826 -s 7 -d 4 -p rtProtoDV -e 8 -c 0 -i 49 -a 0 -x {7.2 4.1 -1 ------- null}
- -t 0.0471343302185826 -s 7 -d 6 -p rtProtoDV -e 8 -c 0 -i 50 -a 0 -x {7.2 6.1 -1 ------- null}
h -t 0.0471343302185826 -s 7 -d 6 -p rtProtoDV -e 8 -c 0 -i 50 -a 0 -x {7.2 6.1 -1 ------- null}
r -t 0.0471343302185826 -s 0 -d 2 -p rtProtoDV -e 8 -c 0 -i 35 -a 0 -x {0.2 2.1 -1 ------- null}
r -t 0.0471343302185826 -s 1 -d 2 -p rtProtoDV -e 8 -c 0 -i 36 -a 0 -x {1.2 2.1 -1 ------- null}
r -t 0.0471343302185826 -s 3 -d 2 -p rtProtoDV -e 8 -c 0 -i 37 -a 0 -x {3.1 2.1 -1 ------- null}
r -t 0.0471343302185826 -s 3 -d 5 -p rtProtoDV -e 8 -c 0 -i 38 -a 0 -x {3.1 5.1 -1 ------- null}
r -t 0.05406773552271 -s 3 -d 2 -p rtProtoDV -e 8 -c 0 -i 39 -a 0 -x {3.1 2.1 -1 ------- null}
r -t 0.05406773552271 -s 3 -d 5 -p rtProtoDV -e 8 -c 0 -i 40 -a 0 -x {3.1 5.1 -1 ------- null}
r -t 0.0571343302185826 -s 7 -d 4 -p rtProtoDV -e 8 -c 0 -i 41 -a 0 -x {7.2 4.1 -1 ------- null}
r -t 0.0571343302185826 -s 7 -d 6 -p rtProtoDV -e 8 -c 0 -i 42 -a 0 -x {7.2 6.1 -1 ------- null}
r -t 0.0571343302185826 -s 2 -d 0 -p rtProtoDV -e 8 -c 0 -i 43 -a 0 -x {2.1 0.2 -1 ------- null}
+ -t 0.0571343302185826 -s 0 -d 2 -p rtProtoDV -e 8 -c 0 -i 51 -a 0 -x {0.2 2.1 -1 ------- null}
- -t 0.0571343302185826 -s 0 -d 2 -p rtProtoDV -e 8 -c 0 -i 51 -a 0 -x {0.2 2.1 -1 ------- null}
h -t 0.0571343302185826 -s 0 -d 2 -p rtProtoDV -e 8 -c 0 -i 51 -a 0 -x {0.2 2.1 -1 ------- null}
r -t 0.0571343302185826 -s 2 -d 1 -p rtProtoDV -e 8 -c 0 -i 44 -a 0 -x {2.1 1.2 -1 ------- null}
+ -t 0.0571343302185826 -s 1 -d 2 -p rtProtoDV -e 8 -c 0 -i 52 -a 0 -x {1.2 2.1 -1 ------- null}
- -t 0.0571343302185826 -s 1 -d 2 -p rtProtoDV -e 8 -c 0 -i 52 -a 0 -x {1.2 2.1 -1 ------- null}
h -t 0.0571343302185826 -s 1 -d 2 -p rtProtoDV -e 8 -c 0 -i 52 -a 0 -x {1.2 2.1 -1 ------- null}
r -t 0.0571343302185826 -s 2 -d 3 -p rtProtoDV -e 8 -c 0 -i 45 -a 0 -x {2.1 3.1 -1 ------- null}
r -t 0.0571343302185826 -s 2 -d 4 -p rtProtoDV -e 8 -c 0 -i 46 -a 0 -x {2.1 4.1 -1 ------- null}
r -t 0.0571343302185826 -s 5 -d 3 -p rtProtoDV -e 8 -c 0 -i 47 -a 0 -x {5.1 3.1 -1 ------- null}
r -t 0.0571343302185826 -s 5 -d 6 -p rtProtoDV -e 8 -c 0 -i 48 -a 0 -x {5.1 6.1 -1 ------- null}
r -t 0.0571407302185826 -s 7 -d 4 -p rtProtoDV -e 8 -c 0 -i 49 -a 0 -x {7.2 4.1 -1 ------- null}
r -t 0.0571407302185826 -s 7 -d 6 -p rtProtoDV -e 8 -c 0 -i 50 -a 0 -x {7.2 6.1 -1 ------- null}
r -t 0.0671407302185826 -s 0 -d 2 -p rtProtoDV -e 8 -c 0 -i 51 -a 0 -x {0.2 2.1 -1 ------- null}
r -t 0.0671407302185826 -s 1 -d 2 -p rtProtoDV -e 8 -c 0 -i 52 -a 0 -x {1.2 2.1 -1 ------- null}
+ -t 0.156480885882155 -s 6 -d 5 -p rtProtoDV -e 8 -c 0 -i 53 -a 0 -x {6.1 5.1 -1 ------- null}
- -t 0.156480885882155 -s 6 -d 5 -p rtProtoDV -e 8 -c 0 -i 53 -a 0 -x {6.1 5.1 -1 ------- null}
h -t 0.156480885882155 -s 6 -d 5 -p rtProtoDV -e 8 -c 0 -i 53 -a 0 -x {6.1 5.1 -1 ------- null}
+ -t 0.156480885882155 -s 6 -d 7 -p rtProtoDV -e 8 -c 0 -i 54 -a 0 -x {6.1 7.2 -1 ------- null}
- -t 0.156480885882155 -s 6 -d 7 -p rtProtoDV -e 8 -c 0 -i 54 -a 0 -x {6.1 7.2 -1 ------- null}
h -t 0.156480885882155 -s 6 -d 7 -p rtProtoDV -e 8 -c 0 -i 54 -a 0 -x {6.1 7.2 -1 ------- null}
r -t 0.166487285882155 -s 6 -d 5 -p rtProtoDV -e 8 -c 0 -i 53 -a 0 -x {6.1 5.1 -1 ------- null}
r -t 0.166487285882155 -s 6 -d 7 -p rtProtoDV -e 8 -c 0 -i 54 -a 0 -x {6.1 7.2 -1 ------- null}
+ -t 0.22058669092161 -s 4 -d 2 -p rtProtoDV -e 8 -c 0 -i 55 -a 0 -x {4.1 2.1 -1 ------- null}
- -t 0.22058669092161 -s 4 -d 2 -p rtProtoDV -e 8 -c 0 -i 55 -a 0 -x {4.1 2.1 -1 ------- null}
h -t 0.22058669092161 -s 4 -d 2 -p rtProtoDV -e 8 -c 0 -i 55 -a 0 -x {4.1 2.1 -1 ------- null}
+ -t 0.22058669092161 -s 4 -d 7 -p rtProtoDV -e 8 -c 0 -i 56 -a 0 -x {4.1 7.2 -1 ------- null}
- -t 0.22058669092161 -s 4 -d 7 -p rtProtoDV -e 8 -c 0 -i 56 -a 0 -x {4.1 7.2 -1 ------- null}
h -t 0.22058669092161 -s 4 -d 7 -p rtProtoDV -e 8 -c 0 -i 56 -a 0 -x {4.1 7.2 -1 ------- null}
r -t 0.23059309092161 -s 4 -d 2 -p rtProtoDV -e 8 -c 0 -i 55 -a 0 -x {4.1 2.1 -1 ------- null}
r -t 0.23059309092161 -s 4 -d 7 -p rtProtoDV -e 8 -c 0 -i 56 -a 0 -x {4.1 7.2 -1 ------- null}
+ -t 0.277940357931862 -s 1 -d 2 -p rtProtoDV -e 8 -c 0 -i 57 -a 0 -x {1.2 2.1 -1 ------- null}
- -t 0.277940357931862 -s 1 -d 2 -p rtProtoDV -e 8 -c 0 -i 57 -a 0 -x {1.2 2.1 -1 ------- null}
h -t 0.277940357931862 -s 1 -d 2 -p rtProtoDV -e 8 -c 0 -i 57 -a 0 -x {1.2 2.1 -1 ------- null}
r -t 0.287946757931862 -s 1 -d 2 -p rtProtoDV -e 8 -c 0 -i 57 -a 0 -x {1.2 2.1 -1 ------- null}
+ -t 0.399577726796073 -s 5 -d 3 -p rtProtoDV -e 8 -c 0 -i 58 -a 0 -x {5.1 3.1 -1 ------- null}
- -t 0.399577726796073 -s 5 -d 3 -p rtProtoDV -e 8 -c 0 -i 58 -a 0 -x {5.1 3.1 -1 ------- null}
h -t 0.399577726796073 -s 5 -d 3 -p rtProtoDV -e 8 -c 0 -i 58 -a 0 -x {5.1 3.1 -1 ------- null}
+ -t 0.399577726796073 -s 5 -d 6 -p rtProtoDV -e 8 -c 0 -i 59 -a 0 -x {5.1 6.1 -1 ------- null}
- -t 0.399577726796073 -s 5 -d 6 -p rtProtoDV -e 8 -c 0 -i 59 -a 0 -x {5.1 6.1 -1 ------- null}
h -t 0.399577726796073 -s 5 -d 6 -p rtProtoDV -e 8 -c 0 -i 59 -a 0 -x {5.1 6.1 -1 ------- null}
+ -t 0.408238025805092 -s 7 -d 4 -p rtProtoDV -e 8 -c 0 -i 60 -a 0 -x {7.2 4.1 -1 ------- null}
- -t 0.408238025805092 -s 7 -d 4 -p rtProtoDV -e 8 -c 0 -i 60 -a 0 -x {7.2 4.1 -1 ------- null}
h -t 0.408238025805092 -s 7 -d 4 -p rtProtoDV -e 8 -c 0 -i 60 -a 0 -x {7.2 4.1 -1 ------- null}
+ -t 0.408238025805092 -s 7 -d 6 -p rtProtoDV -e 8 -c 0 -i 61 -a 0 -x {7.2 6.1 -1 ------- null}
- -t 0.408238025805092 -s 7 -d 6 -p rtProtoDV -e 8 -c 0 -i 61 -a 0 -x {7.2 6.1 -1 ------- null}
h -t 0.408238025805092 -s 7 -d 6 -p rtProtoDV -e 8 -c 0 -i 61 -a 0 -x {7.2 6.1 -1 ------- null}
r -t 0.409584126796073 -s 5 -d 3 -p rtProtoDV -e 8 -c 0 -i 58 -a 0 -x {5.1 3.1 -1 ------- null}
r -t 0.409584126796073 -s 5 -d 6 -p rtProtoDV -e 8 -c 0 -i 59 -a 0 -x {5.1 6.1 -1 ------- null}
r -t 0.418244425805092 -s 7 -d 4 -p rtProtoDV -e 8 -c 0 -i 60 -a 0 -x {7.2 4.1 -1 ------- null}
r -t 0.418244425805092 -s 7 -d 6 -p rtProtoDV -e 8 -c 0 -i 61 -a 0 -x {7.2 6.1 -1 ------- null}
+ -t 1 -s 0 -d 2 -p cbr -e 500 -c 1 -i 62 -a 1 -x {0.0 7.0 0 ------- null}
- -t 1 -s 0 -d 2 -p cbr -e 500 -c 1 -i 62 -a 1 -x {0.0 7.0 0 ------- null}
h -t 1 -s 0 -d 2 -p cbr -e 500 -c 1 -i 62 -a 1 -x {0.0 7.0 -1 ------- null}
+ -t 1.005 -s 0 -d 2 -p cbr -e 500 -c 1 -i 63 -a 1 -x {0.0 7.0 1 ------- null}
- -t 1.005 -s 0 -d 2 -p cbr -e 500 -c 1 -i 63 -a 1 -x {0.0 7.0 1 ------- null}
h -t 1.005 -s 0 -d 2 -p cbr -e 500 -c 1 -i 63 -a 1 -x {0.0 7.0 -1 ------- null}
+ -t 1.01 -s 0 -d 2 -p cbr -e 500 -c 1 -i 64 -a 1 -x {0.0 7.0 2 ------- null}
- -t 1.01 -s 0 -d 2 -p cbr -e 500 -c 1 -i 64 -a 1 -x {0.0 7.0 2 ------- null}
h -t 1.01 -s 0 -d 2 -p cbr -e 500 -c 1 -i 64 -a 1 -x {0.0 7.0 -1 ------- null}
r -t 1.0104 -s 0 -d 2 -p cbr -e 500 -c 1 -i 62 -a 1 -x {0.0 7.0 0 ------- null}
+ -t 1.0104 -s 2 -d 4 -p cbr -e 500 -c 1 -i 62 -a 1 -x {0.0 7.0 0 ------- null}
- -t 1.0104 -s 2 -d 4 -p cbr -e 500 -c 1 -i 62 -a 1 -x {0.0 7.0 0 ------- null}
h -t 1.0104 -s 2 -d 4 -p cbr -e 500 -c 1 -i 62 -a 1 -x {0.0 7.0 -1 ------- null}
+ -t 1.015 -s 0 -d 2 -p cbr -e 500 -c 1 -i 65 -a 1 -x {0.0 7.0 3 ------- null}
- -t 1.015 -s 0 -d 2 -p cbr -e 500 -c 1 -i 65 -a 1 -x {0.0 7.0 3 ------- null}
h -t 1.015 -s 0 -d 2 -p cbr -e 500 -c 1 -i 65 -a 1 -x {0.0 7.0 -1 ------- null}
r -t 1.0154 -s 0 -d 2 -p cbr -e 500 -c 1 -i 63 -a 1 -x {0.0 7.0 1 ------- null}
+ -t 1.0154 -s 2 -d 4 -p cbr -e 500 -c 1 -i 63 -a 1 -x {0.0 7.0 1 ------- null}
- -t 1.0154 -s 2 -d 4 -p cbr -e 500 -c 1 -i 63 -a 1 -x {0.0 7.0 1 ------- null}
h -t 1.0154 -s 2 -d 4 -p cbr -e 500 -c 1 -i 63 -a 1 -x {0.0 7.0 -1 ------- null}
+ -t 1.02 -s 0 -d 2 -p cbr -e 500 -c 1 -i 66 -a 1 -x {0.0 7.0 4 ------- null}
- -t 1.02 -s 0 -d 2 -p cbr -e 500 -c 1 -i 66 -a 1 -x {0.0 7.0 4 ------- null}
h -t 1.02 -s 0 -d 2 -p cbr -e 500 -c 1 -i 66 -a 1 -x {0.0 7.0 -1 ------- null}
r -t 1.0204 -s 0 -d 2 -p cbr -e 500 -c 1 -i 64 -a 1 -x {0.0 7.0 2 ------- null}
+ -t 1.0204 -s 2 -d 4 -p cbr -e 500 -c 1 -i 64 -a 1 -x {0.0 7.0 2 ------- null}
- -t 1.0204 -s 2 -d 4 -p cbr -e 500 -c 1 -i 64 -a 1 -x {0.0 7.0 2 ------- null}
h -t 1.0204 -s 2 -d 4 -p cbr -e 500 -c 1 -i 64 -a 1 -x {0.0 7.0 -1 ------- null}
r -t 1.0208 -s 2 -d 4 -p cbr -e 500 -c 1 -i 62 -a 1 -x {0.0 7.0 0 ------- null}
+ -t 1.0208 -s 4 -d 7 -p cbr -e 500 -c 1 -i 62 -a 1 -x {0.0 7.0 0 ------- null}
- -t 1.0208 -s 4 -d 7 -p cbr -e 500 -c 1 -i 62 -a 1 -x {0.0 7.0 0 ------- null}
h -t 1.0208 -s 4 -d 7 -p cbr -e 500 -c 1 -i 62 -a 1 -x {0.0 7.0 -1 ------- null}
+ -t 1.025 -s 0 -d 2 -p cbr -e 500 -c 1 -i 67 -a 1 -x {0.0 7.0 5 ------- null}
- -t 1.025 -s 0 -d 2 -p cbr -e 500 -c 1 -i 67 -a 1 -x {0.0 7.0 5 ------- null}
h -t 1.025 -s 0 -d 2 -p cbr -e 500 -c 1 -i 67 -a 1 -x {0.0 7.0 -1 ------- null}
r -t 1.0254 -s 0 -d 2 -p cbr -e 500 -c 1 -i 65 -a 1 -x {0.0 7.0 3 ------- null}
+ -t 1.0254 -s 2 -d 4 -p cbr -e 500 -c 1 -i 65 -a 1 -x {0.0 7.0 3 ------- null}
- -t 1.0254 -s 2 -d 4 -p cbr -e 500 -c 1 -i 65 -a 1 -x {0.0 7.0 3 ------- null}
h -t 1.0254 -s 2 -d 4 -p cbr -e 500 -c 1 -i 65 -a 1 -x {0.0 7.0 -1 ------- null}
r -t 1.0258 -s 2 -d 4 -p cbr -e 500 -c 1 -i 63 -a 1 -x {0.0 7.0 1 ------- null}
+ -t 1.0258 -s 4 -d 7 -p cbr -e 500 -c 1 -i 63 -a 1 -x {0.0 7.0 1 ------- null}
- -t 1.0258 -s 4 -d 7 -p cbr -e 500 -c 1 -i 63 -a 1 -x {0.0 7.0 1 ------- null}
h -t 1.0258 -s 4 -d 7 -p cbr -e 500 -c 1 -i 63 -a 1 -x {0.0 7.0 -1 ------- null}
+ -t 1.03 -s 0 -d 2 -p cbr -e 500 -c 1 -i 68 -a 1 -x {0.0 7.0 6 ------- null}
- -t 1.03 -s 0 -d 2 -p cbr -e 500 -c 1 -i 68 -a 1 -x {0.0 7.0 6 ------- null}
h -t 1.03 -s 0 -d 2 -p cbr -e 500 -c 1 -i 68 -a 1 -x {0.0 7.0 -1 ------- null}
r -t 1.0304 -s 0 -d 2 -p cbr -e 500 -c 1 -i 66 -a 1 -x {0.0 7.0 4 ------- null}
+ -t 1.0304 -s 2 -d 4 -p cbr -e 500 -c 1 -i 66 -a 1 -x {0.0 7.0 4 ------- null}
- -t 1.0304 -s 2 -d 4 -p cbr -e 500 -c 1 -i 66 -a 1 -x {0.0 7.0 4 ------- null}
h -t 1.0304 -s 2 -d 4 -p cbr -e 500 -c 1 -i 66 -a 1 -x {0.0 7.0 -1 ------- null}
r -t 1.0308 -s 2 -d 4 -p cbr -e 500 -c 1 -i 64 -a 1 -x {0.0 7.0 2 ------- null}
+ -t 1.0308 -s 4 -d 7 -p cbr -e 500 -c 1 -i 64 -a 1 -x {0.0 7.0 2 ------- null}
- -t 1.0308 -s 4 -d 7 -p cbr -e 500 -c 1 -i 64 -a 1 -x {0.0 7.0 2 ------- null}
h -t 1.0308 -s 4 -d 7 -p cbr -e 500 -c 1 -i 64 -a 1 -x {0.0 7.0 -1 ------- null}
r -t 1.0312 -s 4 -d 7 -p cbr -e 500 -c 1 -i 62 -a 1 -x {0.0 7.0 0 ------- null}
+ -t 1.035 -s 0 -d 2 -p cbr -e 500 -c 1 -i 69 -a 1 -x {0.0 7.0 7 ------- null}
- -t 1.035 -s 0 -d 2 -p cbr -e 500 -c 1 -i 69 -a 1 -x {0.0 7.0 7 ------- null}
h -t 1.035 -s 0 -d 2 -p cbr -e 500 -c 1 -i 69 -a 1 -x {0.0 7.0 -1 ------- null}
r -t 1.0354 -s 0 -d 2 -p cbr -e 500 -c 1 -i 67 -a 1 -x {0.0 7.0 5 ------- null}
+ -t 1.0354 -s 2 -d 4 -p cbr -e 500 -c 1 -i 67 -a 1 -x {0.0 7.0 5 ------- null}
- -t 1.0354 -s 2 -d 4 -p cbr -e 500 -c 1 -i 67 -a 1 -x {0.0 7.0 5 ------- null}
h -t 1.0354 -s 2 -d 4 -p cbr -e 500 -c 1 -i 67 -a 1 -x {0.0 7.0 -1 ------- null}
r -t 1.0358 -s 2 -d 4 -p cbr -e 500 -c 1 -i 65 -a 1 -x {0.0 7.0 3 ------- null}